LAMMPS (29 Oct 2020)
Reading restart file ...
  restart file = 29 Oct 2020, LAMMPS = 29 Oct 2020
  restoring atom style atomic from restart
  orthogonal box = (-0.87243589 -0.87243589 -0.87243589) to (28.598597 28.598597 28.598597)
  7 by 2 by 2 MPI processor grid
  pair style tersoff stores no restart info
  1728 atoms
  read_restart CPU = 0.013 seconds
Resetting global fix info from restart file:
  fix style: npt, fix ID: 1
All restart file global fix info was re-assigned
Neighbor list info ...
  update every 1 steps, delay 0 steps, check yes
  max neighbors/atom: 2000, page size: 100000
  master list distance cutoff = 5
  ghost atom cutoff = 5
  1 neighbor lists, perpetual/occasional/extra = 1 0 0
  (1) pair tersoff, perpetual
      attributes: full, newton on
      pair build: full/nsq
      stencil: none
      bin: none
Setting up Verlet run ...
  Unit style    : metal
  Current step  : 2000000
  Time step     : 0.0005
Per MPI rank memory allocation (min/avg/max) = 3.342 | 3.343 | 3.343 Mbytes
Step Time Temp PotEng KinEng TotEng Press Density Volume Lx Ly Lz Xlo Xhi Ylo Yhi Zlo Zhi 
2000000          0  3195.4702 -8887.511837508984  713.3320700148092 -8174.179767494175 -14222.801   2.2474  25596.822  29.471033  29.471033  29.471033 -0.87243589  28.598597 -0.87243589  28.598597 -0.87243589  28.598597 
2000100       0.05  3199.1106 -8887.516066560242  714.1447237261988 -8173.371342834042 -6795.4838  2.25266  25536.978  29.448047  29.448047  29.448047 -0.8609432  28.587104 -0.8609432  28.587104 -0.8609432  28.587104 
2000200        0.1  3313.9819   -8912.7105439394  739.7877069810565 -8172.922836958343 -686.26252  2.26293  25421.137  29.403452  29.403452  29.403452 -0.83864574  28.564807 -0.83864574  28.564807 -0.83864574  28.564807 
2000300       0.15  3295.3546  -8907.19665439205  735.6294975683008 -8171.567156823749  781.89589  2.27371  25300.558  29.356889  29.356889  29.356889 -0.81536418  28.541525 -0.81536418  28.541525 -0.81536418  28.541525 
2000400        0.2  3247.2706 -8894.776036213179  724.8955898419365 -8169.880446371243  5562.8087   2.2833   25194.38  29.315764  29.315764  29.315764 -0.79480185  28.520963 -0.79480185  28.520963 -0.79480185  28.520963 
2000500       0.25  3207.5078 -8884.263834556275  716.0192512589393 -8168.244583297336  6537.0881  2.29035  25116.787  29.285638  29.285638  29.285638 -0.77973876    28.5059 -0.77973876    28.5059 -0.77973876    28.5059 
2000600        0.3    3169.66 -8874.319683670052  707.5703923903972 -8166.749291279654 -0.19709459  2.29628  25051.931  29.260409  29.260409  29.260409 -0.76712436  28.493285 -0.76712436  28.493285 -0.76712436  28.493285 
2000700       0.35  3257.2457 -8891.682925175646  727.1223596057919 -8164.560565569855  6417.1089  2.30155  24994.589  29.238068  29.238068  29.238068 -0.75595339  28.482114 -0.75595339  28.482114 -0.75595339  28.482114 
2000800        0.4  3231.6384 -8884.134425350985   721.405971804763 -8162.728453546222  848.03894  2.30362  24972.118  29.229303  29.229303  29.229303 -0.75157118  28.477732 -0.75157118  28.477732 -0.75157118  28.477732 
2000900       0.45  3286.2274 -8894.469005653124  733.5919970769706 -8160.877008576153  10078.158  2.30405  24967.483  29.227494  29.227494  29.227494 -0.75066684  28.476828 -0.75066684  28.476828 -0.75066684  28.476828 
2001000        0.5  3263.2329 -8887.678625109867  728.4589002710518 -8159.219724838816  6154.4385   2.3003  25008.198  29.243373  29.243373  29.243373 -0.75860622  28.484767 -0.75860622  28.484767 -0.75860622  28.484767 
2001100       0.55  3215.5131 -8875.354027387217  717.8062947368152 -8157.547732650401  1407.8642  2.29228  25095.669  29.277428  29.277428  29.277428 -0.77563384  28.501795 -0.77563384  28.501795 -0.77563384  28.501795 
2001200        0.6  3215.1342 -8873.231438527233  717.7217077586657 -8155.509730768567 -11050.778  2.28301  25197.517  29.316981  29.316981  29.316981 -0.79541015  28.521571 -0.79541015  28.521571 -0.79541015  28.521571 
2001300       0.65  3249.9368 -8878.460630947229  725.4907694251535 -8152.969861522076 -4451.2069  2.27686  25265.614  29.343367  29.343367  29.343367 -0.80860331  28.534764 -0.80860331  28.534764 -0.80860331  28.534764 
2001400        0.7  3308.7537 -8889.246131010181  738.6206058322982 -8150.625525177882 -971.15792  2.27393  25298.131   29.35595   29.35595   29.35595 -0.81489485  28.541056 -0.81489485  28.541056 -0.81489485  28.541056 
2001500       0.75  3304.4909 -8885.895457797989  737.6689976377917 -8148.226460160197 -3722.6334  2.27283  25310.395  29.360693  29.360693  29.360693 -0.8172662  28.543427 -0.8172662  28.543427 -0.8172662  28.543427 
2001600        0.8  3196.2094 -8859.534082998551  713.4970813801438 -8146.037001618407 -14658.743  2.27364  25301.439   29.35723   29.35723   29.35723 -0.81553449  28.541695 -0.81553449  28.541695 -0.81553449  28.541695 
2001700       0.85  3199.2187 -8857.941654664188  714.1688561850882   -8143.7727984791 -2807.1839   2.2791  25240.813  29.333763  29.333763  29.333763 -0.8038012  28.529962 -0.8038012  28.529962 -0.8038012  28.529962 
2001800        0.9  3333.3853 -8885.484672304843  744.1191795780867 -8141.365492726756  3121.1535   2.2852  25173.448  29.307644  29.307644  29.307644 -0.79074148  28.516902 -0.79074148  28.516902 -0.79074148  28.516902 
2001900       0.95  3229.3558 -8860.008567169181  720.8964198603154 -8139.112147308866  10507.552  2.28808  25141.735  29.295331  29.295331  29.295331 -0.78458527  28.510746 -0.78458527  28.510746 -0.78458527  28.510746 
2002000          1  3267.2036 -8866.499442631262  729.3452883035648 -8137.154154327698 -327.43499  2.28673  25156.552  29.301085  29.301085  29.301085 -0.78746226  28.513623 -0.78746226  28.513623 -0.78746226  28.513623 
2002100       1.05  3363.8808 -8886.127397759883  750.9267380991396 -8135.200659660743  5447.1061  2.28405  25186.051  29.312534  29.312534  29.312534 -0.79318642  28.519347 -0.79318642  28.519347 -0.79318642  28.519347 
2002200        1.1  3319.6349 -8874.400766388791  741.0496362781539 -8133.351130110637 -427.30915  2.27976  25233.421  29.330899  29.330899  29.330899 -0.80236927   28.52853 -0.80236927   28.52853 -0.80236927   28.52853 
2002300       1.15  3231.5375 -8853.175678906353  721.3834583291676 -8131.792220577186  1385.5534   2.2748  25288.464  29.352211  29.352211  29.352211 -0.81302499  28.539186 -0.81302499  28.539186 -0.81302499  28.539186 
2002400        1.2  3331.4047    -8874.153989355  743.6770286559561 -8130.476960699044  3388.1632  2.26845  25359.282  29.379585  29.379585  29.379585 -0.82671191  28.552873 -0.82671191  28.552873 -0.82671191  28.552873 
2002500       1.25  3361.6283 -8880.049380674442  750.4239249836903 -8129.625455690752 -7883.3967  2.26167  25435.277  29.408903  29.408903  29.408903 -0.84137114  28.567532 -0.84137114  28.567532 -0.84137114  28.567532 
2002600        1.3  3373.6018 -8882.154954862726  753.0967920615169  -8129.05816280121 -10830.046  2.25746  25482.714  29.427174  29.427174  29.427174 -0.85050667  28.576667 -0.85050667  28.576667 -0.85050667  28.576667 
2002700       1.35  3402.7701 -8888.265373216376  759.6081004570449 -8128.657272759331 -6121.5296  2.25771   25479.89  29.426087  29.426087  29.426087 -0.84996316  28.576124 -0.84996316  28.576124 -0.84996316  28.576124 
2002800        1.4  3312.3612 -8867.865440990692  739.4259103594641 -8128.439530631228 -741.15666  2.26026  25451.154  29.415021  29.415021  29.415021 -0.84443005  28.570591 -0.84443005  28.570591 -0.84443005  28.570591 
2002900       1.45  3274.7471 -8859.560628599258  731.0292305297905 -8128.531398069467 -4369.6846  2.26427  25406.078  29.397645  29.397645  29.397645 -0.83574209  28.561903 -0.83574209  28.561903 -0.83574209  28.561903 
2003000        1.5  3291.9759 -8863.954816974299  734.8752540860737 -8129.079562888226  1538.0799  2.26967  25345.596  29.374299  29.374299  29.374299 -0.82406889   28.55023 -0.82406889   28.55023 -0.82406889   28.55023 
2003100       1.55  3325.0208 -8872.340631580355  742.2519510969669 -8130.088680483388 -6675.6719  2.27641  25270.596  29.345296  29.345296  29.345296 -0.80956755  28.535728 -0.80956755  28.535728 -0.80956755  28.535728 
2003200        1.6  3351.4531 -8879.420041206038  748.1524777433615 -8131.267563462677   1168.703  2.28442  25182.005  29.310964  29.310964  29.310964 -0.79240153  28.518562 -0.79240153  28.518562 -0.79240153  28.518562 
2003300       1.65   3328.991 -8875.785175513887  743.1382281822379 -8132.646947331649  7152.0715   2.2905  25115.187  29.285016  29.285016  29.285016 -0.77942785  28.505589 -0.77942785  28.505589 -0.77942785  28.505589 
2003400        1.7  3282.3799 -8867.668879118428  732.7331186928041 -8134.935760425624  17688.624  2.29248  25093.458  29.276568  29.276568  29.276568 -0.7752038  28.501365 -0.7752038  28.501365 -0.7752038  28.501365 
2003500       1.75   3291.733  -8873.35377329019   734.821042202081 -8138.532731088108  6912.4711  2.28776  25145.238  29.296692  29.296692  29.296692 -0.78526552  28.511426 -0.78526552  28.511426 -0.78526552  28.511426 
2003600        1.8  3272.2185 -8873.052784642216  730.4647616260826 -8142.588023016133 -11544.982  2.27965  25234.628  29.331367  29.331367  29.331367 -0.80260298  28.528764 -0.80260298  28.528764 -0.80260298  28.528764 
2003700       1.85  3325.9271 -8889.363447936808  742.4542610646655 -8146.909186872143 -5263.0602   2.2739  25298.453  29.356075  29.356075  29.356075 -0.81495717  28.541118 -0.81495717  28.541118 -0.81495717  28.541118 
2003800        1.9  3335.0297 -8896.366479190559  744.4862465743608 -8151.880232616199 -7263.5426  2.27008  25341.084  29.372555  29.372555  29.372555 -0.82319732  28.549358 -0.82319732  28.549358 -0.82319732  28.549358 
2003900       1.95  3200.9963  -8871.63457602462  714.5656778272157 -8157.068898197404 -7233.6387  2.26947  25347.918  29.375195  29.375195  29.375195 -0.82451725  28.550678 -0.82451725  28.550678 -0.82451725  28.550678 
2004000          2  3293.5456 -8897.706790532306  735.2256663905767 -8162.481124141729 -5680.2946  2.27302  25308.269  29.359871  29.359871  29.359871 -0.81685524  28.543016 -0.81685524  28.543016 -0.81685524  28.543016 
2004100       2.05   3237.765 -8889.673183394958  722.7736315325635 -8166.899551862394  3579.1587  2.27843  25248.224  29.336634  29.336634  29.336634 -0.80523637  28.531397 -0.80523637  28.531397 -0.80523637  28.531397 
2004200        2.1  3226.2913 -8891.007560071677  720.2123270748266  -8170.79523299685  8645.6178  2.28219  25206.643   29.32052   29.32052   29.32052 -0.79717974  28.523341 -0.79717974  28.523341 -0.79717974  28.523341 
2004300       2.15  3105.3961 -8867.464903219847  693.2246191041665  -8174.24028411568   4262.119  2.28284  25199.397   29.31771   29.31771   29.31771 -0.79577473  28.521936 -0.79577473  28.521936 -0.79577473  28.521936 
2004400        2.2  3219.3155 -8895.590206989838  718.6550980580763 -8176.935108931762  4148.4443  2.28169  25212.117  29.322642  29.322642  29.322642 -0.79824079  28.524402 -0.79824079  28.524402 -0.79824079  28.524402 
2004500       2.25  3139.8588  -8879.70453312877   700.917815683678 -8178.786717445092  -6024.495  2.27871   25245.12  29.335432  29.335432  29.335432 -0.80463538  28.530796 -0.80463538  28.530796 -0.80463538  28.530796 
2004600        2.3  3163.1183 -8886.588070990045  706.1100860266597 -8180.477984963385 -1623.1887  2.27578  25277.638  29.348021  29.348021  29.348021 -0.81093035  28.537091 -0.81093035  28.537091 -0.81093035  28.537091 
2004700       2.35  3174.3976 -8889.905991164171  708.6279837743745 -8181.278007389797 -1660.8225   2.2742  25295.103  29.354779  29.354779  29.354779 -0.81430917   28.54047 -0.81430917   28.54047 -0.81430917   28.54047 
2004800        2.4  3245.6062 -8906.164203927645  724.5240361486968 -8181.640167778948  263.12478  2.27501  25286.204  29.351336  29.351336  29.351336 -0.81258773  28.538749 -0.81258773  28.538749 -0.81258773  28.538749 
2004900       2.45  3200.7777 -8896.479503087021  714.5168835592748 -8181.962619527746 -3936.5088  2.27795   25253.47  29.338666  29.338666  29.338666 -0.80625238  28.532413 -0.80625238  28.532413 -0.80625238  28.532413 
2005000        2.5  3160.5697  -8887.46615825419  705.5411545330923 -8181.925003721098   732.9899  2.28253   25202.79  29.319026  29.319026  29.319026 -0.79643271  28.522593 -0.79643271  28.522593 -0.79643271  28.522593 
2005100       2.55  3247.3299 -8906.578330471155   724.908826296676 -8181.669504174479  2776.2673  2.28503  25175.216   29.30833   29.30833   29.30833 -0.79108451  28.517245 -0.79108451  28.517245 -0.79108451  28.517245 
2005200        2.6  3178.1627 -8890.875679986053  709.4684795062313 -8181.407200479822  4510.3171  2.28584  25166.318  29.304876  29.304876  29.304876 -0.78935776  28.515519 -0.78935776  28.515519 -0.78935776  28.515519 
2005300       2.65  3260.0133 -8908.865897247404  727.7401624927943  -8181.12573475461  6043.2585   2.2842   25184.38  29.311886  29.311886  29.311886 -0.79286239  28.519023 -0.79286239  28.519023 -0.79286239  28.519023 
2005400        2.7  3143.9014 -8882.681567784275   701.820253194123 -8180.861314590152  4299.1943   2.2786  25246.335  29.335902  29.335902  29.335902 -0.80487059  28.531031 -0.80487059  28.531031 -0.80487059  28.531031 
2005500       2.75  3166.2246 -8886.721435816016  706.8035097102504 -8179.917926105766  2509.5673  2.27237  25315.538  29.362682  29.362682  29.362682 -0.8182605  28.544421 -0.8182605  28.544421 -0.8182605  28.544421 
2005600        2.8  3165.2507 -8885.240259418742  706.5860969172861 -8178.654162501456 -3132.8863  2.26673  25378.566   29.38703   29.38703   29.38703 -0.83043446  28.556595 -0.83043446  28.556595 -0.83043446  28.556595 
2005700       2.85   3252.095 -8903.229143786142  725.9725599637438 -8177.256583822398 -1797.7096  2.26227  25428.568  29.406317  29.406317  29.406317 -0.84007819  28.566239 -0.84007819  28.566239 -0.84007819  28.566239 
2005800        2.9  3136.8793 -8875.611601539751  700.2526870095138 -8175.358914530238 -11196.115  2.25903  25464.974  29.420344  29.420344  29.420344 -0.84709163  28.573252 -0.84709163  28.573252 -0.84709163  28.573252 
2005900       2.95  3153.8872 -8877.469886768864  704.0493957170186 -8173.420491051846 -17007.616  2.25889  25466.579  29.420962  29.420962  29.420962 -0.8474006  28.573561 -0.8474006  28.573561 -0.8474006  28.573561 
2006000          3  3239.4909 -8894.428989643988  723.1588992385617 -8171.270090405426    148.365  2.26347    25415.1  29.401124  29.401124  29.401124 -0.83748178  28.563643 -0.83748178  28.563643 -0.83748178  28.563643 
2006100       3.05   3291.291 -8903.966980345933  734.7223539442167 -8169.244626401716 -2486.0177  2.26907  25352.384   29.37692   29.37692   29.37692 -0.82537983  28.551541 -0.82537983  28.551541 -0.82537983  28.551541 
2006200        3.1  3142.1611 -8868.575469259329   701.431751626732 -8167.143717632597 -84.914326  2.27539  25281.942  29.349687  29.349687  29.349687 -0.81176313  28.537924 -0.81176313  28.537924 -0.81176313  28.537924 
2006300       3.15   3183.684 -8875.444297454107  710.7009979446527 -8164.743299509454  2598.6302  2.28171  25211.915  29.322564  29.322564  29.322564 -0.79820165  28.524362 -0.79820165  28.524362 -0.79820165  28.524362 
2006400        3.2  3259.5346 -8889.637820626409  727.6333070410641 -8162.004513585345  6371.8247  2.28604  25164.197  29.304053  29.304053  29.304053 -0.78894608  28.515107 -0.78894608  28.515107 -0.78894608  28.515107 
2006500       3.25  3245.4472 -8884.003676026252   724.488545446055 -8159.515130580197 -3483.1696  2.28736  25149.573  29.298376  29.298376  29.298376 -0.78610736  28.512268 -0.78610736  28.512268 -0.78610736  28.512268 
2006600        3.3  3151.4743  -8860.45903958123  703.5107646888712 -8156.948274892359 -1745.7901  2.28694  25154.192  29.300169  29.300169  29.300169 -0.78700411  28.513165 -0.78700411  28.513165 -0.78700411  28.513165 
2006700       3.35  3293.2566 -8889.750661290331  735.1611493286723 -8154.589511961658  2762.7674  2.28731  25150.209  29.298622  29.298622  29.298622 -0.78623084  28.512392 -0.78623084  28.512392 -0.78623084  28.512392 
2006800        3.4  3318.5007 -8893.380569308769  740.7964560321248 -8152.584113276644 -4459.8332  2.28625  25161.824  29.303132  29.303132  29.303132 -0.78848565  28.514646 -0.78848565  28.514646 -0.78848565  28.514646 
2006900       3.45   3297.596 -8886.385066942523  736.1298409967907 -8150.255225945732  4471.6163  2.28574  25167.428  29.305307  29.305307  29.305307 -0.78957319  28.515734 -0.78957319  28.515734 -0.78957319  28.515734 
2007000        3.5  3280.4883 -8880.630524705186  732.3108619244495 -8148.319662780737 -393.64313  2.28517  25173.687  29.307737  29.307737  29.307737 -0.79078787  28.516949 -0.79078787  28.516949 -0.79078787  28.516949 
2007100       3.55  3283.3136 -8879.392575042553  732.9415532491413 -8146.451021793412  4900.8194    2.283  25197.665  29.317039  29.317039  29.317039 -0.79543896    28.5216 -0.79543896    28.5216 -0.79543896    28.5216 
2007200        3.6  3300.3106 -8881.480272815214  736.7358200913496 -8144.744452723864 -5707.3961    2.279  25241.925  29.334194  29.334194  29.334194 -0.80401658  28.530177 -0.80401658  28.530177 -0.80401658  28.530177 
2007300       3.65  3282.3992 -8876.035218761572  732.7374224304818  -8143.29779633109 -3538.3385  2.27627   25272.17  29.345905  29.345905  29.345905 -0.80987221  28.536033 -0.80987221  28.536033 -0.80987221  28.536033 
2007400        3.7   3289.284 -8876.638200636949  734.2743260634724 -8142.363874573477 -2828.5201   2.2748  25288.525  29.352234  29.352234  29.352234 -0.8130368  28.539198 -0.8130368  28.539198 -0.8130368  28.539198 
2007500       3.75  3225.6209 -8861.443953353146  720.0626823459216 -8141.381271007224  2953.9713  2.27458  25290.978  29.353183  29.353183  29.353183 -0.81351133  28.539672 -0.81351133  28.539672 -0.81351133  28.539672 
2007600        3.8  3302.2168 -8877.635158866953  737.1613639994458 -8140.473794867507  4084.3235  2.27498  25286.517  29.351458  29.351458  29.351458 -0.81264841  28.538809 -0.81264841  28.538809 -0.81264841  28.538809 
2007700       3.85  3329.0909 -8883.047918203789  743.1605088886442 -8139.887409315144  1215.9843  2.27494  25286.882  29.351599  29.351599  29.351599 -0.81271897   28.53888 -0.81271897   28.53888 -0.81271897   28.53888 
2007800        3.9  3246.1459 -8864.352947882318  724.6445262859473 -8139.708421596371 -12.369463  2.27613  25273.666  29.346484  29.346484  29.346484 -0.81016177  28.536323 -0.81016177  28.536323 -0.81016177  28.536323 
2007900       3.95  3369.4824  -8891.81710010419   752.177211965923 -8139.639888138267 -1136.4234  2.27709   25263.05  29.342375  29.342375  29.342375 -0.80810698  28.534268 -0.80810698  28.534268 -0.80810698  28.534268 
2008000          4   3277.555 -8872.024243296382  731.6560437127678 -8140.368199583614 -1585.8913  2.27913  25240.464  29.333628  29.333628  29.333628 -0.80373354  28.529894 -0.80373354  28.529894 -0.80373354  28.529894 
2008100       4.05  3276.0388 -8872.240849869562  731.3175846807994 -8140.923265188763  1346.1854    2.282  25208.728  29.321329  29.321329  29.321329 -0.79758394  28.523745 -0.79758394  28.523745 -0.79758394  28.523745 
2008200        4.1   3264.313 -8870.010055691942   728.700008068543 -8141.310047623399  3386.9726  2.28402  25186.415  29.312675  29.312675  29.312675 -0.79325703  28.519418 -0.79325703  28.519418 -0.79325703  28.519418 
2008300       4.15  3196.7712 -8855.679183835962  713.6224831482346 -8142.056700687728  235.38939  2.28579  25166.893    29.3051    29.3051    29.3051 -0.78946947   28.51563 -0.78946947   28.51563 -0.78946947   28.51563 
2008400        4.2  3238.1662 -8865.632892383139  722.8631904306318 -8142.769701952507 -962.04567  2.28729  25150.434   29.29871   29.29871   29.29871 -0.78627446  28.512435 -0.78627446  28.512435 -0.78627446  28.512435 
2008500       4.25  3363.7184 -8894.598001103786  750.8905011216291 -8143.707499982157  11178.573  2.28739  25149.274  29.298259  29.298259  29.298259 -0.78604933   28.51221 -0.78604933   28.51221 -0.78604933   28.51221 
2008600        4.3  3321.1299 -8886.114367151202  741.3833598241246 -8144.731007327077  3567.1934  2.28344  25192.781  29.315144  29.315144  29.315144 -0.79449175  28.520653 -0.79449175  28.520653 -0.79449175  28.520653 
2008700       4.35   3272.023 -8876.372208509078  730.4211277195975  -8145.95108078948 -7266.3346   2.2779  25254.017  29.338877  29.338877  29.338877 -0.80635819  28.532519 -0.80635819  28.532519 -0.80635819  28.532519 
2008800        4.4  3258.0092 -8874.378310888913  727.2927850001793 -8147.085525888733  4363.4039  2.27357  25302.165  29.357511  29.357511  29.357511 -0.81567492  28.541836 -0.81567492  28.541836 -0.81567492  28.541836 
2008900       4.45  3218.8891 -8866.671261387455  718.5599117082859  -8148.11134967917 -8998.0861  2.27017  25340.035   29.37215   29.37215   29.37215 -0.82299455  28.549155 -0.82299455  28.549155 -0.82299455  28.549155 
2009000        4.5  3252.2032 -8875.397788794509  725.9967033891913 -8149.401085405318 -3321.5717  2.26934  25349.353   29.37575   29.37575   29.37575 -0.82479452  28.550955 -0.82479452  28.550955 -0.82479452  28.550955 
2009100       4.55  3287.5276 -8884.506572649107   733.882241366481 -8150.624331282625  1799.1711   2.2709  25331.927  29.369017  29.369017  29.369017 -0.82142812  28.547589 -0.82142812  28.547589 -0.82142812  28.547589 
2009200        4.6  3202.4967 -8866.413747441757  714.9005988569949 -8151.513148584761 -6768.5997   2.2745  25291.817  29.353508  29.353508  29.353508 -0.81367359  28.539834 -0.81367359  28.539834 -0.81367359  28.539834 
2009300       4.65  3217.0464 -8870.315455539629  718.1485643484413 -8152.166891191187   282.5986  2.27952  25236.135  29.331951  29.331951  29.331951  -0.802895  28.529056  -0.802895  28.529056  -0.802895  28.529056 
2009400        4.7  3269.1593  -8882.29378524821  729.7818638300503  -8152.51192141816 -2312.6192  2.28367  25190.249  29.314162  29.314162  29.314162 -0.79400065  28.520161 -0.79400065  28.520161 -0.79400065  28.520161 
2009500       4.75  3312.4125  -8892.07322122824  739.4373632098828 -8152.635858018357  3780.4275  2.28773  25145.526  29.296804  29.296804  29.296804 -0.78532152  28.511482 -0.78532152  28.511482 -0.78532152  28.511482 
2009600        4.8  3280.3647 -8885.279963592688  732.2832573728733 -8152.996706219814  316.72052  2.28986  25122.209  29.287745  29.287745  29.287745 -0.78079231  28.506953 -0.78079231  28.506953 -0.78079231  28.506953 
2009700       4.85  3277.7692 -8884.682815436718  731.7038701613881 -8152.978945275329  2382.3655  2.29061  25113.984  29.284549  29.284549  29.284549 -0.77919397  28.505355 -0.77919397  28.505355 -0.77919397  28.505355 
2009800        4.9  3191.9547 -8865.407984651341  712.5472898655159 -8152.860694785825 -4604.4422  2.29088  25110.987  29.283384  29.283384  29.283384 -0.77861161  28.504772 -0.77861161  28.504772 -0.77861161  28.504772 
2009900       4.95  3206.5609 -8868.487537075207  715.8078754657408 -8152.679661609466 -2471.8936  2.29059  25114.138  29.284609  29.284609  29.284609 -0.77922397  28.505385 -0.77922397  28.505385 -0.77922397  28.505385 
2010000          5   3270.314  -8882.58459653496  730.0396240500602   -8152.5449724849  14548.846  2.29041  25116.177  29.285401  29.285401  29.285401 -0.77962025  28.505781 -0.77962025  28.505781 -0.77962025  28.505781 
2010100       5.05  3299.4648 -8888.979109064916  736.5470178733585 -8152.432091191557  6282.4502  2.28745  25148.609  29.298001  29.298001  29.298001 -0.78592009  28.512081 -0.78592009  28.512081 -0.78592009  28.512081 
2010200        5.1  3270.4816 -8882.470132617058  730.0770259340076  -8152.39310668305 -4615.6507  2.28242  25204.094  29.319532  29.319532  29.319532 -0.79668541  28.522846 -0.79668541  28.522846 -0.79668541  28.522846 
2010300       5.15  3214.4429 -8869.876777160898  717.5673820172783  -8152.30939514362 -4749.8474  2.27842  25248.355  29.336685  29.336685  29.336685 -0.80526189  28.531423 -0.80526189  28.531423 -0.80526189  28.531423 
2010400        5.2  3331.4372 -8895.926825166836  743.6842862528439 -8152.242538913993  3662.3416  2.27572  25278.216  29.348245  29.348245  29.348245 -0.81104234  28.537203 -0.81104234  28.537203 -0.81104234  28.537203 
2010500       5.25  3175.7825 -8861.166579568562  708.9371440018321  -8152.22943556673 -4952.2686  2.27343  25303.706  29.358107  29.358107  29.358107 -0.81597299  28.542134 -0.81597299  28.542134 -0.81597299  28.542134 
2010600        5.3   3236.418 -8874.709260183125  722.4729388951451 -8152.236321287979  -7653.297  2.27371  25300.564  29.356891  29.356891  29.356891 -0.81536533  28.541526 -0.81536533  28.541526 -0.81536533  28.541526 
2010700       5.35  3251.5192 -8877.665157781348  725.8440132145907 -8151.821144566758 -7412.7531  2.27728  25260.942  29.341559  29.341559  29.341559 -0.80769899   28.53386 -0.80769899   28.53386 -0.80769899   28.53386 
2010800        5.4  3227.5863 -8872.508577235123  720.5014163283353 -8152.007160906788 -5653.5374  2.28433  25182.972  29.311339  29.311339  29.311339 -0.79258914   28.51875 -0.79258914   28.51875 -0.79258914   28.51875 
2010900       5.45   3229.221 -8872.531637111118  720.8663379138154 -8151.665299197303   2740.541  2.29436  25072.935  29.268585  29.268585  29.268585 -0.77121201  28.497373 -0.77121201  28.497373 -0.77121201  28.497373 
2011000        5.5  3233.3143 -8873.124231814169  721.7801012034696 -8151.344130610699  269.90287  2.30326  24975.963  29.230803  29.230803  29.230803 -0.75232118  28.478482 -0.75232118  28.478482 -0.75232118  28.478482 
2011100       5.55  3219.3154 -8869.640807537409    718.65509461576 -8150.985712921649  10206.049  2.31107  24891.587  29.197849  29.197849  29.197849 -0.73584426  28.462005 -0.73584426  28.462005 -0.73584426  28.462005 
2011200        5.6   3240.032 -8873.743810578229  723.2796958289759 -8150.464114749253  1769.6505  2.31504  24848.917  29.181156  29.181156  29.181156 -0.72749744  28.453658 -0.72749744  28.453658 -0.72749744  28.453658 
2011300       5.65  3257.7283 -8877.037463879009  727.2300863910516 -8149.807377487958  2420.9065   2.3145  24854.738  29.183434  29.183434  29.183434 -0.72863671  28.454797 -0.72863671  28.454797 -0.72863671  28.454797 
2011400        5.7   3292.123 -8884.708481801643  734.9080975221458 -8149.800384279497  935.18176  2.30929   24910.75   29.20534   29.20534   29.20534 -0.73958974  28.465751 -0.73958974  28.465751 -0.73958974  28.465751 
2011500       5.75  3271.3316 -8880.077788865732  730.2667774614423  -8149.81101140429 -2464.6054  2.30048  25006.179  29.242586  29.242586  29.242586 -0.75821268  28.484373 -0.75821268  28.484373 -0.75821268  28.484373 
2011600        5.8   3224.664 -8869.586563396972  719.8490766273852 -8149.737486769586 -12197.031  2.29011  25119.458  29.286676  29.286676  29.286676 -0.78025778  28.506419 -0.78025778  28.506419 -0.78025778  28.506419 
2011700       5.85  3194.7318  -8861.82595591168  713.1672373336494  -8148.65871857803 -759.17845  2.28289   25198.84  29.317494  29.317494  29.317494 -0.79566668  28.521827 -0.79566668  28.521827 -0.79566668  28.521827 
2011800        5.9  3191.6544 -8860.526462503756   712.480249495602 -8148.046213008154 -13630.267  2.27917  25240.027  29.333459  29.333459  29.333459 -0.8036489   28.52981 -0.8036489   28.52981 -0.8036489   28.52981 
2011900       5.95  3220.3187 -8866.265106708765  718.8790498350745  -8147.38605687369 -6311.7872  2.28047  25225.616  29.327875  29.327875  29.327875 -0.80085705  28.527018 -0.80085705  28.527018 -0.80085705  28.527018 
2012000          6  3184.8287 -8857.623246223919  710.9565499852788  -8146.66669623864  1032.2595  2.28443  25181.888  29.310918  29.310918  29.310918 -0.79237883   28.51854 -0.79237883   28.51854 -0.79237883   28.51854 
2012100       6.05  3220.7055 -8864.421478613665  718.9654078943465 -8145.456070719319  2107.4991  2.28904  25131.138  29.291215  29.291215  29.291215 -0.78252711  28.508688 -0.78252711  28.508688 -0.78252711  28.508688 
2012200        6.1  3191.9332 -8856.235984468778  712.5425046186519 -8143.693479850126  96.555936  2.29332  25084.214  29.272973  29.272973  29.272973 -0.77340617  28.499567 -0.77340617  28.499567 -0.77340617  28.499567 
2012300       6.15  3196.0499 -8855.035463046983  713.4614814311931 -8141.573981615789  976.40336  2.29637  25050.944  29.260025  29.260025  29.260025 -0.76693229  28.493093 -0.76693229  28.493093 -0.76693229  28.493093 
2012400        6.2  3341.8017 -8885.593559367811  745.9979877169513  -8139.59557165086 -3881.4262  2.29834  25029.424  29.251644  29.251644  29.251644 -0.76274183  28.488903 -0.76274183  28.488903 -0.76274183  28.488903 
2012500       6.25  3194.6487 -8850.327554898678  713.1486846020911 -8137.178870296588 -1750.3815  2.29882  25024.296  29.249646  29.249646  29.249646 -0.76174284  28.487904 -0.76174284  28.487904 -0.76174284  28.487904 
2012600        6.3  3185.1379  -8845.51017295193  711.0255752333154 -8134.484597718615  4133.4863  2.29928  25019.276  29.247691  29.247691  29.247691 -0.76076499  28.486926 -0.76076499  28.486926 -0.76076499  28.486926 
2012700       6.35  3289.7161 -8866.151217359691  734.3707935389822 -8131.780423820709  2838.1199  2.29741  25039.607  29.255611  29.255611  29.255611 -0.76472508  28.490886 -0.76472508  28.490886 -0.76472508  28.490886 
2012800        6.4  3303.3665 -8866.147025942219  737.4180052014784  -8128.72902074074  6337.9659  2.29216  25096.979  29.277938  29.277938  29.277938 -0.77588851  28.502049 -0.77588851  28.502049 -0.77588851  28.502049 
2012900       6.45  3312.2809 -8865.294903976537  739.4079853989022 -8125.886918577635  2281.3314  2.28554   25169.63  29.306162  29.306162  29.306162 -0.79000045  28.516161 -0.79000045  28.516161 -0.79000045  28.516161 
2013000        6.5  3266.4883 -8851.663207575968  729.1855955750839 -8122.477612000885 -6169.2506  2.27926  25239.042  29.333077  29.333077  29.333077 -0.80345809  28.529619 -0.80345809  28.529619 -0.80345809  28.529619 
2013100       6.55  3268.7313 -8849.380737257172  729.6863032636334 -8119.694433993538  3043.1955  2.27545  25281.315  29.349444  29.349444  29.349444 -0.81164185  28.537803 -0.81164185  28.537803 -0.81164185  28.537803 
2013200        6.6   3201.157  -8831.07829341568  714.6015471146179 -8116.476746301061 -6706.7607  2.27442  25292.759  29.353872  29.353872  29.353872 -0.81385585  28.540017 -0.81385585  28.540017 -0.81385585  28.540017 
2013300       6.65  3307.1391 -8852.004237652751  738.2601649434359 -8113.744072709314   3062.427  2.27788  25254.332  29.338999  29.338999  29.338999 -0.80641912   28.53258 -0.80641912   28.53258 -0.80641912   28.53258 
2013400        6.7  3323.8196 -8852.875482368127  741.9837866128189 -8110.891695755307  -5417.949  2.28043  25226.026  29.328034  29.328034  29.328034 -0.80093643  28.527097 -0.80093643  28.527097 -0.80093643  28.527097 
2013500       6.75  3332.8344 -8852.444343426612  743.9961813463473 -8108.448162080265   14286.73  2.28212  25207.342  29.320791  29.320791  29.320791 -0.79731517  28.523476 -0.79731517  28.523476 -0.79731517  28.523476 
2013600        6.8  3345.3529 -8853.132973881146  746.7907241284831 -8106.342249752663 -2638.5329  2.27947  25236.637  29.332145  29.332145  29.332145 -0.80299215  28.529153 -0.80299215  28.529153 -0.80299215  28.529153 
2013700       6.85   3375.063 -8857.817013543281  753.4229812556139 -8104.394032287667 -4051.8134   2.2756  25279.627  29.348791  29.348791  29.348791 -0.81131529  28.537476 -0.81131529  28.537476 -0.81131529  28.537476 
2013800        6.9  3283.2406  -8835.59289805874   732.925252914496 -8102.667645144244 -4771.4069  2.27365  25301.329  29.357187  29.357187  29.357187 -0.8155133  28.541674 -0.8155133  28.541674 -0.8155133  28.541674 
2013900       6.95  3241.0254   -8824.5396151606  723.5014589466201  -8101.03815621398 -10043.918  2.27377  25299.966   29.35666   29.35666   29.35666 -0.81524976  28.541411 -0.81524976  28.541411 -0.81524976  28.541411 
2014000          7  3407.3371 -8860.795973190141  760.6275903174193 -8100.168382872722 -13019.218   2.2767  25267.357  29.344042  29.344042  29.344042 -0.80894064  28.535101 -0.80894064  28.535101 -0.80894064  28.535101 
2014100       7.05  3357.8823 -8848.943325563368  749.5876843266241 -8099.355641236744    2958.51  2.28206  25208.064  29.321071  29.321071  29.321071 -0.7974552  28.523616 -0.7974552  28.523616 -0.7974552  28.523616 
2014200        7.1  3289.5108 -8833.257199604333  734.3249739501917 -8098.932225654142  350.07661  2.28786  25144.103  29.296251  29.296251  29.296251 -0.78504509  28.511206 -0.78504509  28.511206 -0.78504509  28.511206 
2014300       7.15  3384.2283 -8853.800640122136   755.468970773289 -8098.331669348847  2376.7533   2.2921  25097.645  29.278197  29.278197  29.278197 -0.77601793  28.502179 -0.77601793  28.502179 -0.77601793  28.502179 
2014400        7.2  3295.9487 -8833.809361028159  735.7621161700399 -8098.047244858119  4821.6672  2.29382   25078.81  29.270871  29.270871  29.270871 -0.77235506  28.498516 -0.77235506  28.498516 -0.77235506  28.498516 
2014500       7.25  3259.1068 -8825.785516717191  727.5378032486275 -8098.247713468563  2305.9657  2.29384  25078.546  29.270768  29.270768  29.270768 -0.77230368  28.498464 -0.77230368  28.498464 -0.77230368  28.498464 
2014600        7.3  3322.9875 -8840.391240607505   741.798049953297 -8098.593190654208  1862.6119  2.29281  25089.831  29.275158  29.275158  29.275158 -0.77449844  28.500659 -0.77449844  28.500659 -0.77449844  28.500659 
2014700       7.35  3348.9019 -8846.799025421318  747.5829762765617 -8099.216049144757  176.39961  2.29097  25110.043  29.283017  29.283017  29.283017 -0.77842811  28.504589 -0.77842811  28.504589 -0.77842811  28.504589 
2014800        7.4  3386.4069 -8856.218578247212  755.9553092975673 -8100.263268949644  1498.4389   2.2887   25134.93  29.292688  29.292688  29.292688 -0.78326361  28.509424 -0.78326361  28.509424 -0.78326361  28.509424 
2014900       7.45  3330.7355 -8845.206585675744  743.5276510249113 -8101.678934650832 -6492.8356  2.28541  25171.094   29.30673   29.30673   29.30673 -0.79028467  28.516445 -0.79028467  28.516445 -0.79028467  28.516445 
2015000        7.5  3379.8926 -8858.092368701149  754.5010978952376 -8103.591270805911 -11913.151  2.28385   25188.24  29.313383  29.313383  29.313383 -0.7936111  28.519772 -0.7936111  28.519772 -0.7936111  28.519772 
2015100       7.55  3398.4084 -8865.101788498365  758.6344316091157 -8106.467356889249  2463.1658  2.28535  25171.698  29.306965  29.306965  29.306965 -0.79040186  28.516563 -0.79040186  28.516563 -0.79040186  28.516563 
2015200        7.6  3298.2364 -8846.227258369652  736.2728035460201 -8109.954454823632  6760.5802  2.28638  25160.435  29.302593  29.302593  29.302593 -0.78821597  28.514377 -0.78821597  28.514377 -0.78821597  28.514377 
2015300       7.65  3289.7964 -8848.887555365967  734.3887168479022 -8114.498838518065 -2570.1424  2.28547  25170.456  29.306482  29.306482  29.306482 -0.79016085  28.516322 -0.79016085  28.516322 -0.79016085  28.516322 
2015400        7.7  3381.7845 -8875.175573491635  754.9234246022096 -8120.252148889425  4037.9438  2.28413  25185.174  29.312193  29.312193  29.312193 -0.79301626  28.519177 -0.79301626  28.519177 -0.79301626  28.519177 
2015500       7.75  3264.7319   -8855.6540784157  728.7935179281724 -8126.860560487528 -1039.9226  2.28288  25199.002  29.317557  29.317557  29.317557 -0.79569814  28.521859 -0.79569814  28.521859 -0.79569814  28.521859 
2015600        7.8  3323.2545 -8875.659704970794  741.8576419698829 -8133.802063000911 -9690.5955   2.2822  25206.522  29.320473  29.320473  29.320473 -0.79715629  28.523317 -0.79715629  28.523317 -0.79715629  28.523317 
2015700       7.85  3309.8659 -8879.510760062509  738.8688869233468 -8140.641873139162  871.07131  2.28421  25184.261  29.311839  29.311839  29.311839 -0.79283926     28.519 -0.79283926     28.519 -0.79283926     28.519 
2015800        7.9  3268.3488  -8875.78124450577  729.6009242024766 -8146.180320303293  1984.2017  2.28657  25158.336  29.301778  29.301778  29.301778 -0.78780844  28.513969 -0.78780844  28.513969 -0.78780844  28.513969 
2015900       7.95  3287.9218 -8884.263538748424      733.970244072 -8150.293294676424 -5151.9193  2.28726   25150.73  29.298825  29.298825  29.298825 -0.78633189  28.512493 -0.78633189  28.512493 -0.78633189  28.512493 
2016000          8  3217.4258 -8871.479935565832  718.2332769620695 -8153.246658603763   1754.152  2.28772  25145.667  29.296858  29.296858  29.296858 -0.78534884   28.51151 -0.78534884   28.51151 -0.78534884   28.51151 
2016100       8.05  3249.7378 -8880.775920512189  725.4463433599182 -8155.329577152271  718.67026  2.28595  25165.121  29.304412  29.304412  29.304412 -0.78912546  28.515286 -0.78912546  28.515286 -0.78912546  28.515286 
2016200        8.1  3292.5602 -8891.802107226782   735.005693048182   -8156.7964141786    3312.38  2.28378  25189.037  29.313692  29.313692  29.313692 -0.79376571  28.519926 -0.79376571  28.519926 -0.79376571  28.519926 
2016300       8.15   3278.203 -8889.531340765765  731.8006923280877 -8157.730648437677  3051.4087  2.28064  25223.768  29.327159  29.327159  29.327159 -0.80049893   28.52666 -0.80049893   28.52666 -0.80049893   28.52666 
2016400        8.2  3167.6411 -8865.303292088762  707.1197191763036 -8158.183572912458 -3421.8282  2.27728   25260.89  29.341539  29.341539  29.341539 -0.80768893   28.53385 -0.80768893   28.53385 -0.80768893   28.53385 
2016500       8.25  3233.3584 -8880.604914389263  721.7899300539486 -8158.814984335315 -8664.4729  2.27505  25285.697   29.35114   29.35114   29.35114 -0.81248963   28.53865 -0.81248963   28.53865 -0.81248963   28.53865 
2016600        8.3  3251.3543 -8884.949060644334  725.8072133218527 -8159.141847322481 -1545.1703  2.27543  25281.487  29.349511  29.349511  29.349511 -0.81167516  28.537836 -0.81167516  28.537836 -0.81167516  28.537836 
2016700       8.35  3251.7734 -8885.410086277718  725.9007661526741 -8159.509320125044  -6465.765  2.27794  25253.649  29.338735  29.338735  29.338735 -0.80628694  28.532448 -0.80628694  28.532448 -0.80628694  28.532448 
2016800        8.4  3213.4092 -8876.973364614565  717.3366278789691 -8159.636736735596 -173.28619  2.28194  25209.339  29.321565  29.321565  29.321565 -0.79770225  28.523863 -0.79770225  28.523863 -0.79770225  28.523863 
2016900       8.45   3145.025 -8861.945124014197  702.0710650318472  -8159.87405898235 -857.36324  2.28714  25152.075  29.299347  29.299347  29.299347 -0.78659297  28.512754 -0.78659297  28.512754 -0.78659297  28.512754 
2017000        8.5  3274.3724  -8890.63707127521  730.9455851652494 -8159.691486109961  926.10604  2.29303  25087.394   29.27421   29.27421   29.27421 -0.77402466  28.500185 -0.77402466  28.500185 -0.77402466  28.500185 
2017100       8.55  3176.1194  -8868.29380186585  709.0123413091161 -8159.281460556734  3428.4594  2.29725  25041.352   29.25629   29.25629   29.25629 -0.76506486  28.491226 -0.76506486  28.491226 -0.76506486  28.491226 
2017200        8.6   3310.657 -8897.883035466262   739.045471572931 -8158.837563893331  3389.8232  2.29957  25016.128  29.246464  29.246464  29.246464 -0.76015147  28.486312 -0.76015147  28.486312 -0.76015147  28.486312 
2017300       8.65  3224.0866 -8878.284045113151  719.7201803777843 -8158.563864735366   1298.068   2.2996  25015.763  29.246322  29.246322  29.246322 -0.7600804  28.486241 -0.7600804  28.486241 -0.7600804  28.486241 
2017400        8.7  3279.2058 -8890.172243964405  732.0245508708779 -8158.147693093528  2906.2137  2.29826  25030.324  29.251995  29.251995  29.251995 -0.76291709  28.489078 -0.76291709  28.489078 -0.76291709  28.489078 
2017500       8.75  3200.6652 -8872.252900310825  714.4917569355902 -8157.761143375234 -7007.9865  2.29553  25060.125    29.2636    29.2636    29.2636 -0.76871943   28.49488 -0.76871943   28.49488 -0.76871943   28.49488 
2017600        8.8  3172.7489 -8865.476673348594  708.2599450139315 -8157.216728334663  5835.1193  2.29334  25084.041  29.272906  29.272906  29.272906 -0.77337243  28.499533 -0.77337243  28.499533 -0.77337243  28.499533 
2017700       8.85   3188.842 -8868.485451108123  711.8524291097425  -8156.63302199838 -8969.9178  2.29158   25103.36  29.280419  29.280419  29.280419 -0.77712896   28.50329 -0.77712896   28.50329 -0.77712896   28.50329 
2017800        8.9  3173.3493  -8864.40374126811  708.3939686970144 -8156.009772571096 -134.62485  2.29366  25080.501  29.271529  29.271529  29.271529 -0.77268386  28.498845 -0.77268386  28.498845 -0.77268386  28.498845 
2017900       8.95  3242.2146 -8879.187110874842  723.7669234899712 -8155.420187384871  1565.8294  2.29741  25039.641  29.255624  29.255624  29.255624 -0.76473159  28.490892 -0.76473159  28.490892 -0.76473159  28.490892 
2018000          9  3299.2566 -8890.995594292413  736.5005325159892 -8154.495061776424   3016.791  2.30244  24984.956  29.234311  29.234311  29.234311 -0.75407513  28.480236 -0.75407513  28.480236 -0.75407513  28.480236 
2018100       9.05  3185.8231 -8864.622643162082  711.1785241092894 -8153.444119052792 -823.59365  2.30708  24934.663  29.214682  29.214682  29.214682 -0.74426075  28.470422 -0.74426075  28.470422 -0.74426075  28.470422 
2018200        9.1  3270.7068 -8882.286404307797   730.127313912102 -8152.159090395695  9246.8286  2.31113  24890.909  29.197584  29.197584  29.197584 -0.73571162  28.461872 -0.73571162  28.461872 -0.73571162  28.461872 
2018300       9.15  3172.7327 -8859.250437379274    708.25633121827 -8150.994106161004 -2135.6028  2.31262  24874.953  29.191344  29.191344  29.191344 -0.7325916  28.458752 -0.7325916  28.458752 -0.7325916  28.458752 
2018400        9.2  3249.0013 -8875.033635424428  725.2819415631551 -8149.751693861273  4981.1559  2.31393  24860.882  29.185839  29.185839  29.185839 -0.72983902     28.456 -0.72983902     28.456 -0.72983902     28.456 
2018500       9.25  3246.0724 -8873.104508076371  724.6281009565823 -8148.476407119788  134.74533  2.31384  24861.766  29.186184  29.186184  29.186184 -0.73001186  28.456173 -0.73001186  28.456173 -0.73001186  28.456173 
2018600        9.3  3230.5506 -8868.584979419484  721.1631373937299 -8147.421842025754   16725.61  2.31156  24886.369  29.195809  29.195809  29.195809 -0.73482405  28.460985 -0.73482405  28.460985 -0.73482405  28.460985 
2018700       9.35  3200.2812 -8860.730813738934  714.4060469844403 -8146.324766754493  1793.3317  2.30492  24958.036  29.223808  29.223808  29.223808 -0.74882354  28.474984 -0.74882354  28.474984 -0.74882354  28.474984 
2018800        9.4  3220.5849 -8863.642282088622  718.9384691443436 -8144.703812944278 -10116.399  2.29665  25047.925   29.25885   29.25885   29.25885 -0.76634455  28.492505 -0.76634455  28.492505 -0.76634455  28.492505 
2018900       9.45  3292.1297 -8877.447798855572  734.9095828237183 -8142.538216031853  -5553.398   2.2908  25111.883  29.283732  29.283732  29.283732 -0.77878579  28.504947 -0.77878579  28.504947 -0.77878579  28.504947 
2019000        9.5  3211.0171  -8856.83480378798  716.8026276605212 -8140.032176127459 -2052.4772  2.28723  25151.106  29.298971  29.298971  29.298971 -0.78640488  28.512566 -0.78640488  28.512566 -0.78640488  28.512566 
2019100       9.55  3233.9739 -8859.720162808095  721.9273343523856 -8137.792828455709  -2848.024  2.28585  25166.213  29.304836  29.304836  29.304836 -0.78933746  28.515498 -0.78933746  28.515498 -0.78933746  28.515498 
2019200        9.6  3271.0428 -8865.652976332474  730.2023061207012 -8135.450670211773  7444.4771  2.28533  25171.942  29.307059  29.307059  29.307059 -0.79044921   28.51661 -0.79044921   28.51661 -0.79044921   28.51661 
2019300       9.65  3135.8895  -8833.12426235127  700.0317234395671 -8133.092538911703  7569.3059   2.2843  25183.333  29.311479  29.311479  29.311479 -0.79265923   28.51882 -0.79265923   28.51882 -0.79265923   28.51882 
2019400        9.7  3211.2191 -8847.455761362355  716.8477194705537 -8130.608041891801 -689.41755   2.2825  25203.178  29.319177  29.319177  29.319177 -0.79650797  28.522669 -0.79650797  28.522669 -0.79650797  28.522669 
2019500       9.75   3260.295  -8856.01698634666  727.8030652752083 -8128.213921071451 -7977.7533  2.28099   25219.84  29.325636  29.325636  29.325636 -0.79973764  28.525898 -0.79973764  28.525898 -0.79973764  28.525898 
2019600        9.8  3235.7479 -8847.782295132858  722.3233546772151 -8125.458940455643   -12941.8  2.28204  25208.305  29.321165  29.321165  29.321165 -0.79750191  28.523663 -0.79750191  28.523663 -0.79750191  28.523663 
2019700       9.85  3248.2214 -8848.488730538527  725.1078399367202 -8123.380890601808 -1436.1429  2.28843  25137.819   29.29381   29.29381   29.29381 -0.78382472  28.509985 -0.78382472  28.509985 -0.78382472  28.509985 
2019800        9.9  3259.6733 -8848.225343805918  727.6642770917987 -8120.561066714119  8485.0029  2.29792  25034.032  29.253439  29.253439  29.253439 -0.76363924    28.4898 -0.76363924    28.4898 -0.76363924    28.4898 
2019900       9.95  3266.0218 -8846.692257796065   729.081464558318 -8117.610793237747  8499.4966  2.30476  24959.706  29.224459  29.224459  29.224459 -0.74914929   28.47531 -0.74914929   28.47531 -0.74914929   28.47531 
2020000         10  3355.7055 -8864.026318566635  749.1017630437618 -8114.924555522874  8950.6848  2.30844  24919.998  29.208954  29.208954  29.208954 -0.74139657  28.467557 -0.74139657  28.467557 -0.74139657  28.467557 
2020100      10.05  3333.4079 -8857.059644505702  744.1242035564617  -8112.93544094924 -362.92593  2.30888  24915.185  29.207073  29.207073  29.207073 -0.7404561  28.466617 -0.7404561  28.466617 -0.7404561  28.466617 
2020200       10.1  3327.3687  -8853.99554586719  742.7760650287098  -8111.21948083848    345.119  2.30891  24914.888  29.206957  29.206957  29.206957 -0.74039809  28.466559 -0.74039809  28.466559 -0.74039809  28.466559 
2020300      10.15  3333.0597 -8853.803071543622  744.0464911725372 -8109.756580371084  8677.8602  2.30752  24929.878  29.212814  29.212814  29.212814 -0.74332639  28.469487 -0.74332639  28.469487 -0.74332639  28.469487 
2020400       10.2    3276.29 -8840.120613418534  731.3736643406205 -8108.746949077913  7035.3852  2.30281  24980.924  29.232739  29.232739  29.232739 -0.75328888   28.47945 -0.75328888   28.47945 -0.75328888   28.47945 
2020500      10.25  3341.1764   -8853.4951066986  745.8584011701076 -8107.636705528492  3668.8702  2.29594  25055.619  29.261846  29.261846  29.261846 -0.76784242  28.494003 -0.76784242  28.494003 -0.76784242  28.494003 
2020600       10.3  3298.1051  -8843.10163143343  736.2434974570859 -8106.858133976344   -4438.24  2.28968  25124.148  29.288499  29.288499  29.288499 -0.78116907   28.50733 -0.78116907   28.50733 -0.78116907   28.50733 
2020700      10.35  3395.8685 -8864.266047170222  758.0674373796134 -8106.198609790608 -4005.0333  2.28713  25152.125  29.299366  29.299366  29.299366 -0.78660286  28.512764 -0.78660286  28.512764 -0.78660286  28.512764 
2020800       10.4  3363.5334 -8857.357819317231  750.8491960538817 -8106.508623263349  3687.5884  2.28757  25147.276  29.297483  29.297483  29.297483 -0.78566119  28.511822 -0.78566119  28.511822 -0.78566119  28.511822 
2020900      10.45  3269.3038 -8837.024153769009  729.8141100853888  -8107.21004368362 -1394.8761   2.2888  25133.768  29.292237  29.292237  29.292237 -0.78303788  28.509199 -0.78303788  28.509199 -0.78303788  28.509199 
2021000       10.5  3349.1448 -8855.965506158625  747.6372047856327 -8108.328301372992 -4508.4507  2.29029  25117.472  29.285904  29.285904  29.285904 -0.77987185  28.506033 -0.77987185  28.506033 -0.77987185  28.506033 
2021100      10.55   3382.786  -8864.58049487963  755.1470070673503  -8109.43348781228  2962.3503  2.29212  25097.426  29.278112  29.278112  29.278112 -0.77597544  28.502136 -0.77597544  28.502136 -0.77597544  28.502136 
2021200       10.6  3369.9124 -8863.417364380553  752.2731956138349 -8111.144168766718   6299.596  2.29274  25090.595  29.275455  29.275455  29.275455 -0.77464706  28.500808 -0.77464706  28.500808 -0.77464706  28.500808 
2021300      10.65  3353.2498 -8862.194222975659  748.5535644331571 -8113.640658542501 -4051.9102  2.29083  25111.547  29.283601  29.283601  29.283601 -0.77872035  28.504881 -0.77872035  28.504881 -0.77872035  28.504881 
2021400       10.7  3325.5412 -8858.896493254564  742.3681181419117 -8116.528375112653 -3697.5746   2.2912  25107.448  29.282008  29.282008  29.282008 -0.77792378  28.504085 -0.77792378  28.504085 -0.77792378  28.504085 
2021500      10.75  3319.6817 -8860.712372299684  741.0600768823647  -8119.65229541732 -487.70386  2.29377  25079.364  29.271086  29.271086  29.271086 -0.77246266  28.498623 -0.77246266  28.498623 -0.77246266  28.498623 
2021600       10.8  3260.4034 -8850.921857233527  727.8272629498953 -8123.094594283632 -2467.0292   2.2965  25049.538  29.259478  29.259478  29.259478 -0.76665851  28.492819 -0.76665851  28.492819 -0.76665851  28.492819 
2021700      10.85  3283.4147 -8859.933790115274  732.9641275479219 -8126.969662567352  5408.2884  2.29701  25043.952  29.257303  29.257303  29.257303 -0.76557109  28.491732 -0.76557109  28.491732 -0.76557109  28.491732 
2021800       10.9   3220.242 -8850.044527250069  718.8619338092947 -8131.182593440774  577.20993  2.29348  25082.512  29.272311  29.272311  29.272311 -0.77307509  28.499236 -0.77307509  28.499236 -0.77307509  28.499236 
2021900      10.95  3247.0399 -8860.164952288782  724.8440966965206 -8135.320855592261  2357.4842  2.28806  25141.879  29.295387  29.295387  29.295387 -0.78461324  28.510774 -0.78461324  28.510774 -0.78461324  28.510774 
2022000         11  3238.8173 -8862.235007507541   723.008533658154 -8139.226473849387  1216.7667  2.28026  25227.922  29.328768  29.328768  29.328768 -0.80130386  28.527465 -0.80130386  28.527465 -0.80130386  28.527465 
2022100      11.05  3281.4601 -8874.957973200469  732.5277890984565 -8142.430184102013  591.67706  2.27256  25313.371  29.361844  29.361844  29.361844 -0.81784174  28.544003 -0.81784174  28.544003 -0.81784174  28.544003 
2022200       11.1   3220.219 -8864.015896797009  718.8568052719406 -8145.159091525069 -5205.4018  2.26519  25395.723   29.39365   29.39365   29.39365 -0.83374484  28.559906 -0.83374484  28.559906 -0.83374484  28.559906 
2022300      11.15  3182.3882 -8857.426768687867  710.4117483001949 -8147.015020387672 -13741.843  2.26129  25439.584  29.410563  29.410563  29.410563  -0.842201  28.568362  -0.842201  28.568362  -0.842201  28.568362 
2022400       11.2  3198.7259 -8862.936218387467  714.0588466598772  -8148.87737172759 -10425.829   2.2633  25416.939  29.401834  29.401834  29.401834 -0.83783637  28.563997 -0.83783637  28.563997 -0.83783637  28.563997 
2022500      11.25  3188.6526 -8862.191612164392  711.8101572129482 -8150.381454951444 -6269.7585  2.26926  25350.219  29.376084  29.376084  29.376084 -0.82496182  28.551123 -0.82496182  28.551123 -0.82496182  28.551123 
2022600       11.3  3247.6467 -8876.357635962855  724.9795398302961 -8151.378096132559  4858.1998  2.27767  25256.669  29.339904  29.339904  29.339904 -0.80687166  28.533032 -0.80687166  28.533032 -0.80687166  28.533032 
2022700      11.35  3195.8494 -8865.062886219623  713.4167253344899 -8151.646160885133  9209.5985  2.28521  25173.339  29.307601  29.307601  29.307601 -0.79072034  28.516881 -0.79072034  28.516881 -0.79072034  28.516881 
2022800       11.4  3158.7736 -8857.048805618482  705.1402059701277 -8151.908599648355  8704.5535  2.28799  25142.697  29.295705  29.295705  29.295705 -0.78477204  28.510933 -0.78477204  28.510933 -0.78477204  28.510933 
2022900      11.45  3204.0743  -8867.51367210046  715.2527714912919 -8152.260900609168  2906.6732  2.28593    25165.4   29.30452   29.30452   29.30452 -0.78917961   28.51534 -0.78917961   28.51534 -0.78917961   28.51534 
2023000       11.5  3255.1794 -8878.837684457973  726.6610783609681 -8152.176606097004 -7064.0154  2.28321  25195.346  29.316139  29.316139  29.316139 -0.79498926   28.52115 -0.79498926   28.52115 -0.79498926   28.52115 
2023100      11.55  3263.5014 -8880.954947183633  728.5188300180034 -8152.436117165629  6086.4747  2.28189  25209.956  29.321805  29.321805  29.321805  -0.797822  28.523983  -0.797822  28.523983  -0.797822  28.523983 
2023200       11.6  3183.4425 -8863.055479744691  710.6470891072033 -8152.408390637488  -2203.555  2.27883  25243.812  29.334925  29.334925  29.334925 -0.80438205  28.530543 -0.80438205  28.530543 -0.80438205  28.530543 
2023300      11.65  3248.0034 -8877.229122879544  725.0591748957039  -8152.16994798384 -7418.2396  2.27564  25279.097  29.348586  29.348586  29.348586 -0.81121274  28.537374 -0.81121274  28.537374 -0.81121274  28.537374 
2023400       11.7  3165.8433 -8858.903632186282  706.7183946630705 -8152.185237523212  1303.4908  2.27441  25292.874  29.353917  29.353917  29.353917 -0.81387797  28.540039 -0.81387797  28.540039 -0.81387797  28.540039 
2023500      11.75  3254.6148 -8879.067223981947   726.535051341242 -8152.532172640705 -2357.1361  2.27231  25316.214  29.362943  29.362943  29.362943 -0.81839117  28.544552 -0.81839117  28.544552 -0.81839117  28.544552 
2023600       11.8  3218.3279  -8870.85236024163  718.4346516661118 -8152.417708575518  2890.7749  2.26999   25342.03  29.372921  29.372921  29.372921 -0.82338003  28.549541 -0.82338003  28.549541 -0.82338003  28.549541 
2023700      11.85  3172.5537 -8860.538582700194    708.21636488109 -8152.322217819104 -1114.5373  2.26654  25380.636  29.387829  29.387829  29.387829 -0.83083389  28.556995 -0.83083389  28.556995 -0.83083389  28.556995 
2023800       11.9  3199.8675  -8866.27662176768  714.3136911737258 -8151.962930593954 -4976.1616  2.26204  25431.081  29.407286  29.407286  29.407286 -0.84056243  28.566723 -0.84056243  28.566723 -0.84056243  28.566723 
2023900      11.95  3242.9565 -8875.050259822185  723.9325507376413 -8151.117709084543 -3726.1161   2.2605  25448.472  29.413988  29.413988  29.413988 -0.84391341  28.570074 -0.84391341  28.570074 -0.84391341  28.570074 
2024000         12  3284.5032 -8883.423283409071  733.2071074271104  -8150.21617598196 -212.08943  2.26123  25440.199    29.4108    29.4108    29.4108 -0.84231957   28.56848 -0.84231957   28.56848 -0.84231957   28.56848 
2024100      12.05  3265.4804 -8878.236416978905  728.9606107247804 -8149.275806254125 -7781.9481   2.2643  25405.706  29.397501  29.397501  29.397501 -0.83567032  28.561831 -0.83567032  28.561831 -0.83567032  28.561831 
2024200       12.1  3252.0686  -8874.38321309459  725.9666643749414 -8148.416548719649  285.77292  2.27086  25332.314  29.369166  29.369166  29.369166 -0.82150276  28.547664 -0.82150276  28.547664 -0.82150276  28.547664 
2024300      12.15   3268.189 -8876.753903501543   729.565256336698 -8147.188647164845 -1421.2831    2.279  25241.864   29.33417   29.33417   29.33417 -0.80400477  28.530166 -0.80400477  28.530166 -0.80400477  28.530166 
2024400       12.2   3216.363 -8864.065644154518  717.9960155006237 -8146.069628653894   -111.598  2.28749  25148.196  29.297841  29.297841  29.297841   -0.78584  28.512001   -0.78584  28.512001   -0.78584  28.512001 
2024500      12.25  3176.4335 -8853.775576921274   709.082466656687 -8144.693110264588  6758.8504  2.29499  25065.985   29.26588   29.26588   29.26588 -0.76985976  28.496021 -0.76985976  28.496021 -0.76985976  28.496021 
2024600       12.3  3249.2925 -8868.373538653763  725.3469416796224  -8143.02659697414  7678.1082  2.29873  25025.248  29.250018  29.250018  29.250018 -0.76192836  28.488089 -0.76192836  28.488089 -0.76192836  28.488089 
2024700      12.35  3271.3195 -8872.031907157823  730.2640682260336  -8141.76783893179  9286.4343  2.29866  25025.952  29.250292  29.250292  29.250292 -0.76206549  28.488226 -0.76206549  28.488226 -0.76206549  28.488226 
2024800       12.4  3235.6565 -8862.688203672116  722.3029499196872 -8140.385253752429  219.45062  2.29482  25067.885   29.26662   29.26662   29.26662 -0.77022948   28.49639 -0.77022948   28.49639 -0.77022948   28.49639 
2024900      12.45  3328.9268 -8881.811033979287  743.1238865443263 -8138.687147434961  4309.3458   2.2887  25134.913  29.292681  29.292681  29.292681 -0.78326028  28.509421 -0.78326028  28.509421 -0.78326028  28.509421 
2025000       12.5  3294.0447 -8872.561086174574  735.3370686673926 -8137.224017507181 -1405.2732  2.28089  25220.918  29.326054  29.326054  29.326054 -0.79994659  28.526107 -0.79994659  28.526107 -0.79994659  28.526107 
2025100      12.55  3279.8648 -8867.466689714933  732.1716656931083 -8135.295024021824 -11134.431  2.27443  25292.653  29.353832  29.353832  29.353832 -0.81383536  28.539996 -0.81383536  28.539996 -0.81383536  28.539996 
2025200       12.6  3296.9698 -8869.567854869594  735.9900450639954 -8133.577809805599 -6329.7864  2.27233  25316.023   29.36287   29.36287   29.36287 -0.81835439  28.544515 -0.81835439  28.544515 -0.81835439  28.544515 
2025300      12.65   3272.799 -8862.338143836474  730.5943622402244 -8131.743781596249 -7293.1111   2.2736  25301.832  29.357382  29.357382  29.357382 -0.81561055  28.541771 -0.81561055  28.541771 -0.81561055  28.541771 
2025400       12.7  3259.2696 -8857.691621210859  727.5741605608283 -8130.117460650031 -5772.0715  2.27934  25238.118  29.332719  29.332719  29.332719 -0.80327907   28.52944 -0.80327907   28.52944 -0.80327907   28.52944 
2025500      12.75   3238.578 -8851.325175370914  722.9551093382553 -8128.370066032659 -2952.4898  2.28783  25144.421  29.296375  29.296375  29.296375 -0.78510695  28.511268 -0.78510695  28.511268 -0.78510695  28.511268 
2025600       12.8  3355.5471 -8875.212123345318  749.0663955219172 -8126.145727823401  7985.6111  2.29545  25060.938  29.263916  29.263916  29.263916 -0.76887762  28.495038 -0.76887762  28.495038 -0.76887762  28.495038 
2025700      12.85  3301.6974     -8861.20572453  737.0453982164278 -8124.160326313572  5027.3235  2.29916  25020.505  29.248169  29.248169  29.248169 -0.76100427  28.487165 -0.76100427  28.487165 -0.76100427  28.487165 
2025800       12.9  3280.3684 -8854.764664965178  732.2840879237772   -8122.4805770414  7448.8772   2.2987  25025.541  29.250131  29.250131  29.250131 -0.76198535  28.488146 -0.76198535  28.488146 -0.76198535  28.488146 
2025900      12.95  3260.4154 -8848.878919941497  727.8299310855848 -8121.048988855912  8235.2554  2.29465  25069.725  29.267336  29.267336  29.267336 -0.77058755  28.496748 -0.77058755  28.496748 -0.77058755  28.496748 
2026000         13  3241.5169 -8842.930626329338  723.6111775087403 -8119.319448820598 -8836.2149  2.28837  25138.519  29.294082  29.294082  29.294082 -0.78396066  28.510121 -0.78396066  28.510121 -0.78396066  28.510121 
2026100      13.05  3326.7283 -8860.074016725368  742.6331206210876  -8117.44089610428 -6245.2532   2.2848  25177.811  29.309337  29.309337  29.309337 -0.79158794  28.517749 -0.79158794  28.517749 -0.79158794  28.517749 
2026200       13.1  3267.3831 -8845.173790847963   729.385345675045 -8115.788445172918 -6088.8557  2.28403  25186.303  29.312632  29.312632  29.312632 -0.79323538  28.519396 -0.79323538  28.519396 -0.79323538  28.519396 
2026300      13.15  3386.7325 -8870.345262818395  756.0279783202461 -8114.317284498149 -540.65961   2.2875  25148.116  29.297809  29.297809  29.297809 -0.78582435  28.511985 -0.78582435  28.511985 -0.78582435  28.511985 
2026400       13.2  3264.4273 -8841.372178640318  728.7255159687052 -8112.646662671614 -1241.3493  2.29257  25092.438  29.276172  29.276172  29.276172 -0.77500548  28.501166 -0.77500548  28.501166 -0.77500548  28.501166 
2026500      13.25  3376.3885 -8864.875209547339  753.7188770310478 -8111.156332516292  6795.4819  2.29727  25041.091  29.256189  29.256189  29.256189 -0.76501396  28.491175 -0.76501396  28.491175 -0.76501396  28.491175 
2026600       13.3  3245.7169 -8834.098655096341  724.5487557891215  -8109.54989930722  4030.2416   2.2996  25015.804  29.246337  29.246337  29.246337 -0.76008831  28.486249 -0.76008831  28.486249 -0.76008831  28.486249 
2026700      13.35   3319.669 -8849.223403653312  741.0572465038987 -8108.166157149413 -2144.6556  2.30105  25000.041  29.240193  29.240193  29.240193 -0.75701633  28.483177 -0.75701633  28.483177 -0.75701633  28.483177 
2026800       13.4  3315.6706 -8847.048720083476  740.1646867924877 -8106.884033290989  14885.295  2.30315  24977.236    29.2313    29.2313    29.2313 -0.75256941   28.47873 -0.75256941   28.47873 -0.75256941   28.47873 
2026900      13.45  3287.6519 -8839.744669904732  733.9099955288539 -8105.834674375878  10286.407   2.3016  24994.025  29.237848  29.237848  29.237848 -0.75584357  28.482004 -0.75584357  28.482004 -0.75584357  28.482004 
2027000       13.5  3277.2092  -8836.90469711978   731.578848055197 -8105.325849064583  8651.5961  2.29464  25069.872  29.267393  29.267393  29.267393 -0.77061609  28.496777 -0.77061609  28.496777 -0.77061609  28.496777 
2027100      13.55  3334.6284 -8848.855252023212  744.3966771941285 -8104.458574829083 -8476.4588  2.28578  25167.016  29.305147  29.305147  29.305147 -0.78949321  28.515654 -0.78949321  28.515654 -0.78949321  28.515654 
2027200       13.6  3364.1165 -8854.581768972659   750.979370622337 -8103.602398350322  -7814.748  2.28035  25226.935  29.328386  29.328386  29.328386 -0.80111252  28.527273 -0.80111252  28.527273 -0.80111252  28.527273 
2027300      13.65  3371.5047 -8856.013902576236  752.6286533986513 -8103.385249177585 -7280.1533  2.27957  25235.552  29.331725  29.331725  29.331725 -0.80278209  28.528943 -0.80278209  28.528943 -0.80278209  28.528943 
2027400       13.7  3369.4305 -8855.882218774561  752.1656102736896 -8103.716608500871 -4254.2785  2.28278  25200.075  29.317973  29.317973  29.317973 -0.79590623  28.522067 -0.79590623  28.522067 -0.79590623  28.522067 
2027500      13.75  3338.2343 -8849.747149623054  745.2016231387115 -8104.545526484342 -2139.4203   2.2888   25133.77  29.292237  29.292237  29.292237 -0.78303832  28.509199 -0.78303832  28.509199 -0.78303832  28.509199 
2027600       13.8  3435.6745 -8872.610244057569  766.9534257421145 -8105.656818315454  7431.2005  2.29512   25064.59  29.265337  29.265337  29.265337 -0.76958822  28.495749 -0.76958822  28.495749 -0.76958822  28.495749 
2027700      13.85  3263.4447 -8835.508102898704  728.5061697851902 -8107.001933113514  7257.7858  2.29805  25032.658  29.252904  29.252904  29.252904 -0.76337171  28.489532 -0.76337171  28.489532 -0.76337171  28.489532 
2027800       13.9  3358.4137 -8858.422921783487  749.7063151317789 -8108.716606651708  883.42446  2.29892  25023.145  29.249198  29.249198  29.249198 -0.76151861  28.487679 -0.76151861  28.487679 -0.76151861  28.487679 
2027900      13.95   3340.683 -8856.657984669528  745.7482485952877  -8110.90973607424 -6653.7433  2.29934  25018.611  29.247431  29.247431  29.247431 -0.76063524  28.486796 -0.76063524  28.486796 -0.76063524  28.486796 
2028000         14   3270.634  -8843.53829526464  730.1110438583783 -8113.427251406261 -2724.5026  2.29949  25016.992    29.2468    29.2468    29.2468 -0.76031981  28.486481 -0.76031981  28.486481 -0.76031981  28.486481 
2028100      14.05  3227.8493  -8837.17025107568  720.5601310821901  -8116.61011999349 -6543.5349  2.29996  25011.803  29.244778  29.244778  29.244778 -0.75930884   28.48547 -0.75930884   28.48547 -0.75930884   28.48547 
2028200       14.1  3342.1164 -8866.297780039247  746.0682337466112 -8120.229546292636  2004.2119  2.30201  24989.518   29.23609   29.23609   29.23609 -0.75496472  28.481126 -0.75496472  28.481126 -0.75496472  28.481126 
2028300      14.15  3388.6854 -8880.602795500232  756.4639274371975 -8124.138868063034  2490.4735  2.30372  24971.017  29.228874  29.228874  29.228874 -0.75135637  28.477517 -0.75135637  28.477517 -0.75135637  28.477517 
2028400       14.2  3277.3891 -8859.684719232875  731.6190135582704 -8128.065705674605  1309.2996  2.30529  24954.036  29.222246  29.222246  29.222246 -0.74804284  28.474204 -0.74804284  28.474204 -0.74804284  28.474204 
2028500      14.25  3223.4816 -8851.630528589118  719.5851080103364 -8132.045420578781   1980.393   2.3079  24925.846  29.211238  29.211238  29.211238 -0.7425388    28.4687 -0.7425388    28.4687 -0.7425388    28.4687 
2028600       14.3  3249.4434 -8860.907247287909  725.3806250821074 -8135.526622205802  3330.6685  2.30971  24906.236  29.203576  29.203576  29.203576 -0.73870749  28.464868 -0.73870749  28.464868 -0.73870749  28.464868 
2028700      14.35  3239.4641 -8862.213917225599  723.1529254899433 -8139.060991735656  1223.4437  2.30967  24906.698  29.203756  29.203756  29.203756 -0.7387978  28.464959 -0.7387978  28.464959 -0.7387978  28.464959 
2028800       14.4  3219.0844 -8861.030828676305  718.6035143442584 -8142.427314332046  -1277.568  2.30823  24922.182  29.209807  29.209807  29.209807 -0.74182305  28.467984 -0.74182305  28.467984 -0.74182305  28.467984 
2028900      14.45  3118.2518 -8841.019843357877  696.0944210457976  -8144.92542231208 -2605.6536  2.30676   24938.09  29.216021  29.216021  29.216021 -0.74492991  28.471091 -0.74492991  28.471091 -0.74492991  28.471091 
2029000       14.5  3150.7101 -8850.673194361363   703.340167637838 -8147.333026723525  4670.4119  2.30595  24946.845  29.219439  29.219439  29.219439 -0.74663928    28.4728 -0.74663928    28.4728 -0.74663928    28.4728 
2029100      14.55  3233.1204  -8870.93554410139  721.7368012935602  -8149.19874280783 -6776.9425  2.30521  24954.848  29.222563  29.222563  29.222563 -0.74820134  28.474362 -0.74820134  28.474362 -0.74820134  28.474362 
2029200       14.6  3266.3405 -8880.254572235099  729.1526084629118 -8151.101963772187 -8210.7818  2.30703  24935.169   29.21488   29.21488   29.21488 -0.74435948   28.47052 -0.74435948   28.47052 -0.74435948   28.47052 
2029300      14.65  3240.4662 -8876.268985155086  723.3766182205637 -8152.892366934522  2188.7127  2.31139  24888.119  29.196493  29.196493  29.196493 -0.73516627  28.461327 -0.73516627  28.461327 -0.73516627  28.461327 
2029400       14.7  3252.4822 -8880.230992563142  726.0589849671238 -8154.172007596017  3020.6673  2.31411  24858.929  29.185074  29.185074  29.185074 -0.72945672  28.455618 -0.72945672  28.455618 -0.72945672  28.455618 
2029500      14.75  3259.6401 -8882.935635505681  727.6568661558905  -8155.27876934979  1640.5338  2.31462  24853.446  29.182928  29.182928  29.182928 -0.72838378  28.454545 -0.72838378  28.454545 -0.72838378  28.454545 
2029600       14.8  3218.2099 -8875.215886323949  718.4082949066749 -8156.807591417274 -2782.1272  2.31282   24872.73  29.190474  29.190474  29.190474 -0.73215667  28.458317 -0.73215667  28.458317 -0.73215667  28.458317 
2029700      14.85  3220.3773 -8876.781375351726  718.8921366179515 -8157.889238733775  -1408.166  2.30884  24915.637   29.20725   29.20725   29.20725 -0.74054442  28.466705 -0.74054442  28.466705 -0.74054442  28.466705 
2029800       14.9  3279.3902 -8891.148038306934  732.0657281026671 -8159.082310204267  2439.8557  2.30525  24954.436  29.222403  29.222403  29.222403 -0.74812099  28.474282 -0.74812099  28.474282 -0.74812099  28.474282 
2029900      14.95  3148.3579 -8863.062320238339  702.8150873563047 -8160.247232882035  4625.4351  2.30128   24997.52  29.239211  29.239211  29.239211 -0.7565249  28.482686 -0.7565249  28.482686 -0.7565249  28.482686 
2030000         15  3283.8772 -8894.669389323495  733.0673685322596 -8161.602020791235 -4628.5024  2.29719  25042.014  29.256548  29.256548  29.256548 -0.76519371  28.491354 -0.76519371  28.491354 -0.76519371  28.491354 
2030100      15.05  3278.2739  -8894.32137883695  731.8165345150994 -8162.504844321851  -683.9908  2.29492  25066.752  29.266179  29.266179  29.266179 -0.77000897   28.49617 -0.77000897   28.49617 -0.77000897   28.49617 
2030200       15.1  3166.6955 -8870.159145227726  706.9086277738322 -8163.250517453894 -7826.2447  2.29451  25071.295  29.267947  29.267947  29.267947 -0.77089293  28.497054 -0.77089293  28.497054 -0.77089293  28.497054 
2030300      15.15  3166.1094 -8870.644931073917  706.7777938907351 -8163.867137183182 -7821.0956  2.29795  25033.707  29.253313  29.253313  29.253313 -0.76357598  28.489737 -0.76357598  28.489737 -0.76357598  28.489737 
2030400       15.2   3198.074 -8878.123794976491  713.9133171385066 -8164.210477837984  -5634.722   2.3043  24964.746  29.226426  29.226426  29.226426 -0.75013277  28.476294 -0.75013277  28.476294 -0.75013277  28.476294 
2030500      15.25  3228.3165 -8885.359610293272  720.6644268975028 -8164.695183395768  6418.2619  2.31196  24882.037  29.194115  29.194115  29.194115 -0.73397694  28.460138 -0.73397694  28.460138 -0.73397694  28.460138 
2030600       15.3  3284.4807 -8897.703828209138  733.2020734699125 -8164.501754739225  941.96726   2.3188  24808.628  29.165376  29.165376  29.165376 -0.7196076  28.445768 -0.7196076  28.445768 -0.7196076  28.445768 
2030700      15.35  3263.7209 -8892.859023661058  728.5678257797464 -8164.291197881312  7707.2019  2.32381  24755.171  29.144413  29.144413  29.144413 -0.70912601  28.435287 -0.70912601  28.435287 -0.70912601  28.435287 
2030800       15.4  3342.1673 -8910.437794408419  746.0795878481108 -8164.358206560308  9779.0131  2.32572   24734.86   29.13644   29.13644   29.13644 -0.70513954    28.4313 -0.70513954    28.4313 -0.70513954    28.4313 
2030900      15.45  3266.5708 -8893.600104167695  729.2040092483295 -8164.396094919366  3688.8854  2.32322  24761.403  29.146858  29.146858  29.146858 -0.71034872  28.436509 -0.71034872  28.436509 -0.71034872  28.436509 
2031000       15.5  3296.6987 -8900.492698894579  735.9295313397273 -8164.563167554852  11371.607  2.31819  24815.183  29.167945  29.167945  29.167945 -0.72089198  28.447053 -0.72089198  28.447053 -0.72089198  28.447053 
2031100      15.55  3159.1768 -8870.498481029108  705.2302019746725 -8165.268279054436 -8012.6399  2.31054  24897.285  29.200077  29.200077  29.200077 -0.73695805  28.463119 -0.73695805  28.463119 -0.73695805  28.463119 
2031200       15.6  3246.6357 -8890.069259163218  724.7538531631029 -8165.315406000115  563.69238  2.30418  24966.058  29.226939  29.226939  29.226939 -0.75038887   28.47655 -0.75038887   28.47655 -0.75038887   28.47655 
2031300      15.65  3244.6565 -8889.834489937546  724.3120464614859  -8165.52244347606  722.74547  2.29774  25036.048  29.254225  29.254225  29.254225 -0.76403196  28.490193 -0.76403196  28.490193 -0.76403196  28.490193 
2031400       15.7  3205.9223 -8881.005664706361  715.6653095686992 -8165.340355137662  -2312.411  2.29197   25099.09  29.278758  29.278758  29.278758 -0.77629886   28.50246 -0.77629886   28.50246 -0.77629886   28.50246 
2031500      15.75  3255.3649 -8891.760323451052   726.702498661233 -8165.057824789818 -4895.0304  2.28976  25123.252  29.288151  29.288151  29.288151 -0.78099496  28.507156 -0.78099496  28.507156 -0.78099496  28.507156 
2031600       15.8  3244.2502 -8888.897987341008  724.2213282363386 -8164.676659104669 -1203.1256  2.29048   25115.33  29.285072  29.285072  29.285072 -0.77945563  28.505616 -0.77945563  28.505616 -0.77945563  28.505616 
2031700      15.85  3203.9541 -8879.024854850513   715.225937910733 -8163.798916939781 -8043.8408  2.29152   25103.92  29.280637  29.280637  29.280637 -0.77723792  28.503399 -0.77723792  28.503399 -0.77723792  28.503399 
2031800       15.9  3245.5816 -8887.075575366805  724.5185489332748 -8162.557026433531  4388.3566  2.29399  25076.916  29.270134  29.270134  29.270134 -0.77198654  28.498147 -0.77198654  28.498147 -0.77198654  28.498147 
2031900      15.95  3240.0999 -8884.297872490155  723.2948525289963 -8161.003019961158 -1300.8259  2.29595  25055.559  29.261822  29.261822  29.261822 -0.76783068  28.493991 -0.76783068  28.493991 -0.76783068  28.493991 
2032000         16  3289.3577 -8893.237209430423  734.2907801077749 -8158.946429322648  8674.4784  2.29822  25030.737  29.252156  29.252156  29.252156 -0.76299757  28.489158 -0.76299757  28.489158 -0.76299757  28.489158 
2032100      16.05  3210.7634  -8873.58994617698  716.7459970253412 -8156.843949151639  2235.6027  2.29779  25035.469  29.253999  29.253999  29.253999 -0.7639191   28.49008 -0.7639191   28.49008 -0.7639191   28.49008 
2032200       16.1  3182.8985 -8864.407274094849    710.52565479874 -8153.881619296109 -4951.1493  2.29581  25057.028  29.262394  29.262394  29.262394 -0.76811657  28.494277 -0.76811657  28.494277 -0.76811657  28.494277 
2032300      16.15  3251.6942 -8876.373449839337  725.8830703961347 -8150.490379443202 -2442.9333  2.29352  25082.081  29.272143  29.272143  29.272143 -0.77299126  28.499152 -0.77299126  28.499152 -0.77299126  28.499152 
2032400       16.2  3261.5094 -8874.914833934929  728.0741384837992 -8146.840695451129   3687.358  2.29204  25098.277  29.278442  29.278442  29.278442 -0.77614082  28.502302 -0.77614082  28.502302 -0.77614082  28.502302 
2032500      16.25  3268.7048 -8872.520475220861  729.6803885039192 -8142.840086716942  1322.0959  2.28801  25142.458  29.295612  29.295612  29.295612 -0.78472572  28.510887 -0.78472572  28.510887 -0.78472572  28.510887 
2032600       16.3  3270.7536 -8868.846347730254  730.1377452956727 -8138.708602434581 -2278.3176  2.28238  25204.545  29.319707  29.319707  29.319707 -0.79677298  28.522934 -0.79677298  28.522934 -0.79677298  28.522934 
2032700      16.35  3284.9266 -8868.070092744823  733.3016201778192 -8134.768472567004 -529.72886  2.27808  25252.038  29.338111  29.338111  29.338111 -0.80597493  28.532136 -0.80597493  28.532136 -0.80597493  28.532136 
2032800       16.4  3212.9366 -8848.550331044349  717.2311420483644 -8131.319188995984 -729.21592  2.27496  25286.688  29.351524  29.351524  29.351524 -0.81268139  28.538842 -0.81268139  28.538842 -0.81268139  28.538842 
2032900      16.45  3272.6776 -8858.805601881588  730.5672562490734 -8128.238345632514 -7207.2572  2.27271  25311.685  29.361192  29.361192  29.361192 -0.81751577  28.543677 -0.81751577  28.543677 -0.81751577  28.543677 
2033000       16.5  3298.7712 -8861.920451297628  736.3921863708783  -8125.52826492675  274.04093  2.27315  25306.885  29.359336  29.359336  29.359336 -0.8165876  28.542748 -0.8165876  28.542748 -0.8165876  28.542748 
2033100      16.55  3284.1092 -8856.164779737339  733.1191628149868 -8123.045616922353  6822.2842  2.27446    25292.3  29.353695  29.353695  29.353695 -0.81376704  28.539928 -0.81376704  28.539928 -0.81376704  28.539928 
2033200       16.6  3365.8333  -8872.35795439203   751.362614056408 -8120.995340335621   6092.916  2.27331  25305.056  29.358629  29.358629  29.358629 -0.81623399  28.542395 -0.81623399  28.542395 -0.81623399  28.542395 
2033300      16.65  3380.2139 -8874.149948888478  754.5728333705378 -8119.577115517941  6115.6518  2.27154  25324.778  29.366254  29.366254  29.366254 -0.8200465  28.546207 -0.8200465  28.546207 -0.8200465  28.546207 
2033400       16.7  3323.0635 -8860.451666049932  741.8150113786778 -8118.636654671254  7501.5815  2.27012  25340.577   29.37236   29.37236   29.37236 -0.82309937   28.54926 -0.82309937   28.54926 -0.82309937   28.54926 
2033500      16.75  3265.2518 -8846.871896436684  728.9095622030692 -8117.962334233614  -5090.485  2.26814   25362.77  29.380932  29.380932  29.380932 -0.82738539  28.553546 -0.82738539  28.553546 -0.82738539  28.553546 
2033600       16.8   3324.016 -8859.753320511725  742.0276306750079 -8117.725689836718 -4599.8841  2.26915  25351.397  29.376539  29.376539  29.376539 -0.82518923   28.55135 -0.82518923   28.55135 -0.82518923   28.55135 
2033700      16.85  3318.8334 -8858.765961286979   740.870707903011 -8117.895253383968  1621.4875  2.27268   25312.11  29.361356  29.361356  29.361356 -0.81759783  28.543759 -0.81759783  28.543759 -0.81759783  28.543759 
2033800       16.9  3367.3199 -8870.067824713971   751.694475065652 -8118.373349648319  8038.6173  2.27627  25272.139  29.345893  29.345893  29.345893 -0.8098662  28.536027 -0.8098662  28.536027 -0.8098662  28.536027 
2033900      16.95  3277.8537 -8850.991235896829  731.7227153249526 -8119.268520571876  2134.1478  2.27657   25268.83  29.344612  29.344612  29.344612 -0.80922576  28.535387 -0.80922576  28.535387 -0.80922576  28.535387 
2034000         17  3280.7324 -8853.232317787584  732.3653343978935 -8120.866983389691   2958.635  2.27522  25283.816  29.350412  29.350412  29.350412 -0.81212582  28.538287 -0.81212582  28.538287 -0.81212582  28.538287 
2034100      17.05  3322.6911 -8864.122133238552   741.731876016377 -8122.390257222175  581.95258  2.27279  25310.866  29.360875  29.360875  29.360875 -0.81735727  28.543518 -0.81735727  28.543518 -0.81735727  28.543518 
2034200       17.1  3425.6322  -8889.58153457118  764.7116515806302  -8124.86988299055  2814.8618  2.26862  25357.425  29.378867  29.378867  29.378867 -0.82635327  28.552514 -0.82635327  28.552514 -0.82635327  28.552514 
2034300      17.15  3306.1046  -8865.31367577054  738.0292376830074 -8127.284438087532 -4535.8712  2.26436  25405.133  29.397281  29.397281  29.397281 -0.83555987  28.561721 -0.83555987  28.561721 -0.83555987  28.561721 
2034400       17.2  3292.8381 -8865.062529730509  735.0677265273384  -8129.99480320317 -6294.1683  2.26216  25429.836  29.406806  29.406806  29.406806 -0.84032258  28.566483 -0.84032258  28.566483 -0.84032258  28.566483 
2034500      17.25  3290.4137 -8867.536406462019  734.5265317626954 -8133.009874699324 -3671.6942  2.26324  25417.667  29.402114  29.402114  29.402114 -0.83797677  28.564138 -0.83797677  28.564138 -0.83797677  28.564138 
2034600       17.3  3239.5753 -8859.396763601446  723.1777548377406 -8136.219008763705 -5556.7462  2.26638  25382.458  29.388532  29.388532  29.388532 -0.83118563  28.557346 -0.83118563  28.557346 -0.83118563  28.557346 
2034700      17.35  3289.0338 -8873.510649903312  734.2184781022389 -8139.292171801073  7900.4355  2.27152  25325.053   29.36636   29.36636   29.36636 -0.82009963   28.54626 -0.82009963   28.54626 -0.82009963   28.54626 
2034800       17.4  3238.7595 -8865.571332095631  722.9956354420925 -8142.575696653538   7670.088  2.27581  25277.246   29.34787   29.34787   29.34787 -0.81085455  28.537015 -0.81085455  28.537015 -0.81085455  28.537015 
2034900      17.45  3281.8572 -8878.506583114955  732.6164300300154  -8145.89015308494  417.56916  2.27808  25252.097  29.338134  29.338134  29.338134 -0.8059864  28.532147 -0.8059864  28.532147 -0.8059864  28.532147 
2035000       17.5  3219.0652   -8867.6168880533   718.599236288291  -8149.01765176501 -1465.1132  2.27896  25242.294  29.334337  29.334337  29.334337 -0.80408802  28.530249 -0.80408802  28.530249 -0.80408802  28.530249 
2035100      17.55  3251.9343 -8878.014770554535  725.9366674164327 -8152.078103138102 -3147.7864  2.27847  25247.792  29.336466  29.336466  29.336466 -0.80515278  28.531314 -0.80515278  28.531314 -0.80515278  28.531314 
2035200       17.6  3297.2171 -8890.775379767785  736.0452502762012 -8154.730129491584  -4485.805   2.2778  25255.204  29.339337  29.339337  29.339337 -0.80658802  28.532749 -0.80658802  28.532749 -0.80658802  28.532749 
2035300      17.65  3271.5311 -8887.548412839689  730.3113163044226 -8157.237096535267  2727.3569  2.27657  25268.852  29.344621  29.344621  29.344621 -0.80923017  28.535391 -0.80923017  28.535391 -0.80923017  28.535391 
2035400       17.7  3266.7094 -8888.347593326998  729.2349510972612 -8159.112642229738  1980.6572  2.27296  25308.947  29.360134  29.360134  29.360134 -0.81698641  28.543147 -0.81698641  28.543147 -0.81698641  28.543147 
2035500      17.75  3261.9411 -8888.799379060634  728.1705109463659 -8160.628868114269  2804.7324  2.26779  25366.645  29.382428  29.382428  29.382428 -0.82813342  28.554294 -0.82813342  28.554294 -0.82813342  28.554294 
2035600       17.8  3311.1985 -8900.835465884289  739.1663511947005 -8161.669114689588 -2270.8616  2.26236  25427.488  29.405901  29.405901  29.405901   -0.83987  28.566031   -0.83987  28.566031   -0.83987  28.566031 
[...]
2491700     245.85  3151.0371 -8851.976903097491  703.4131663126293 -8148.563736784862 -10064.317  2.27397  25297.734  29.355797  29.355797  29.355797 -0.81481802  28.540979 -0.81481802  28.540979 -0.81481802  28.540979 
2491800      245.9  3249.9313 -8874.264539126645  725.4895528869424 -8148.774986239703 -5151.0765  2.27176  25322.354  29.365317  29.365317  29.365317 -0.81957815  28.545739 -0.81957815  28.545739 -0.81957815  28.545739 
2491900     245.95  3214.4185 -8866.305909083034  717.5619355306874 -8148.743973552347  7801.5783  2.27266  25312.256  29.361413  29.361413  29.361413 -0.81762603  28.543787 -0.81762603  28.543787 -0.81762603  28.543787 
2492000        246  3121.3307  -8845.68310567359  696.7817294837232 -8148.901376189867 -211.20213  2.27608  25274.298  29.346729  29.346729  29.346729 -0.81028414  28.536445 -0.81028414  28.536445 -0.81028414  28.536445 
2492100     246.05  3154.1916  -8853.22415298385     704.1173486632 -8149.106804320651  3459.9414   2.2825  25203.176  29.319176  29.319176  29.319176 -0.79650742  28.522668 -0.79650742  28.522668 -0.79650742  28.522668 
2492200      246.1  3199.8306 -8862.822564135287   714.305449455687   -8148.5171146796   12639.86  2.28847  25137.424  29.293657  29.293657  29.293657 -0.78374795  28.509909 -0.78374795  28.509909 -0.78374795  28.509909 
2492300     246.15  3244.5625 -8872.306267810487  724.2910485050785 -8148.015219305408  2705.5629  2.28971  25123.775  29.288354  29.288354  29.288354 -0.78109666  28.507257 -0.78109666  28.507257 -0.78109666  28.507257 
2492400      246.2  3244.2186 -8871.661046412759   724.214285297161 -8147.446761115598  1382.1717  2.28938  25127.396  29.289761  29.289761  29.289761 -0.78180011  28.507961 -0.78180011  28.507961 -0.78180011  28.507961 
2492500     246.25  3291.1711 -8881.426975322258  734.6955948049462 -8146.731380517312  605.33764  2.28898  25131.793  29.291469  29.291469  29.291469 -0.78265421  28.508815 -0.78265421  28.508815 -0.78265421  28.508815 
2492600      246.3  3201.7121 -8860.667845192307  714.7254581652363 -8145.942387027071  4642.1041  2.28868  25135.066  29.292741  29.292741  29.292741 -0.78329004  28.509451 -0.78329004  28.509451 -0.78329004  28.509451 
2492700     246.35  3310.9107 -8883.899628847852  739.1021117908519    -8144.797517057  2426.7347  2.28803  25142.241  29.295528  29.295528  29.295528 -0.78468363  28.510844 -0.78468363  28.510844 -0.78468363  28.510844 
2492800      246.4  3299.6466 -8879.902627029682  736.5876098018756 -8143.315017227806  8749.4901  2.28628  25161.531  29.303018  29.303018  29.303018 -0.78842869  28.514589 -0.78842869  28.514589 -0.78842869  28.514589 
2492900     246.45  3180.2455 -8851.737194640064  709.9334193511241  -8141.80377528894  3768.7786  2.28165  25212.515  29.322797  29.322797  29.322797 -0.79831799  28.524479 -0.79831799  28.524479 -0.79831799  28.524479 
2493000      246.5  3247.3202 -8864.980532554066  724.9066711810641 -8140.073861373002 -3855.9657  2.27595  25275.744  29.347288  29.347288  29.347288 -0.81056382  28.536725 -0.81056382  28.536725 -0.81056382  28.536725 
2493100     246.55  3263.3969 -8866.200386273058  728.4954903701739 -8137.704895902884 -12441.861  2.27173  25322.641  29.365428  29.365428  29.365428 -0.81963353  28.545794 -0.81963353  28.545794 -0.81963353  28.545794 
2493200      246.6   3278.874 -8867.159589169753   731.950489791205 -8135.209099378548 -1309.3286  2.27128  25327.715  29.367389  29.367389  29.367389 -0.82061409  28.546775 -0.82061409  28.546775 -0.82061409  28.546775 
2493300     246.65  3361.6411 -8883.050948084696   750.426779588933 -8132.624168495763 -1396.4382  2.27415   25295.68  29.355002  29.355002  29.355002 -0.81442077  28.540582 -0.81442077  28.540582 -0.81442077  28.540582 
2493400      246.7  3189.9137 -8841.954636227834  712.0916773965656 -8129.862958831269 -5319.9875   2.2786  25246.352  29.335909  29.335909  29.335909 -0.80487391  28.531035 -0.80487391  28.531035 -0.80487391  28.531035 
2493500     246.75  3170.4592 -8834.730638618012  707.7488072012557 -8126.981831416756  7144.6858  2.28435  25182.728  29.311244  29.311244  29.311244 -0.79254183  28.518703 -0.79254183  28.518703 -0.79254183  28.518703 
2493600      246.8  3283.3607 -8856.909943095921  732.9520589744521 -8123.957884121469  1591.2812  2.28965  25124.521  29.288644  29.288644  29.288644 -0.78124148  28.507402 -0.78124148  28.507402 -0.78124148  28.507402 
2493700     246.85  3329.8239 -8863.742220616921  743.3241487964218   -8120.4180718205  1955.9031  2.29387  25078.212  29.270638  29.270638  29.270638 -0.77223863  28.498399 -0.77223863  28.498399 -0.77223863  28.498399 
2493800      246.9  3303.3327 -8854.111587786181  737.4104511902041 -8116.701136595977   9422.526  2.29617  25053.079  29.260857  29.260857  29.260857 -0.76734799  28.493509 -0.76734799  28.493509 -0.76734799  28.493509 
2493900     246.95   3284.001 -8846.138568390541  733.0950103316186 -8113.043558058922 -1826.9303  2.29467  25069.452   29.26723   29.26723   29.26723 -0.7705344  28.496695 -0.7705344  28.496695 -0.7705344  28.496695 
2494000        247  3287.0151  -8843.17893704161  733.7678394810878 -8109.411097560522  -1791.817  2.29264  25091.735  29.275898  29.275898  29.275898 -0.77486886   28.50103 -0.77486886   28.50103 -0.77486886   28.50103 
2494100     247.05  3183.6758 -8816.359000129942  710.6991813059293 -8105.659818824012 -4485.3499  2.29263  25091.819  29.275931  29.275931  29.275931 -0.77488514  28.501046 -0.77488514  28.501046 -0.77488514  28.501046 
2494200      247.1  3289.0263 -8836.319292357268  734.2168055029911 -8102.102486854277  14491.987  2.29387  25078.277  29.270663  29.270663  29.270663 -0.77225123  28.498412 -0.77225123  28.498412 -0.77225123  28.498412 
2494300     247.15  3292.6881 -8834.066809226377  735.0342473460427 -8099.032561880334 -1870.6314   2.2935  25082.325  29.272238  29.272238  29.272238 -0.77303874    28.4992 -0.77303874    28.4992 -0.77303874    28.4992 
2494400      247.2  3331.3695 -8840.188058047315  743.6691695429748 -8096.518888504341 -7260.0608  2.29372  25079.889   29.27129   29.27129   29.27129 -0.77256479  28.498726 -0.77256479  28.498726 -0.77256479  28.498726 
2494500     247.25  3403.5137 -8854.270992730148  759.7740803007212 -8094.496912429427  3765.4592  2.29533  25062.311  29.264451  29.264451  29.264451 -0.76914487  28.495306 -0.76914487  28.495306 -0.76914487  28.495306 
2494600      247.3  3363.9161 -8844.075252450959  750.9346247863916 -8093.140627664568  2153.6769   2.2947  25069.184  29.267125  29.267125  29.267125 -0.77048218  28.496643 -0.77048218  28.496643 -0.77048218  28.496643 
2494700     247.35  3340.8114 -8837.806639982226  745.7769140752581 -8092.029725906968 -14071.845  2.29199  25098.769  29.278634  29.278634  29.278634 -0.7762364  28.502397 -0.7762364  28.502397 -0.7762364  28.502397 
2494800      247.4  3387.9164 -8848.178541365287  756.2922682708631 -8091.886273094424 -5044.4206  2.29237   25094.64  29.277028  29.277028  29.277028 -0.7754336  28.501594 -0.7754336  28.501594 -0.7754336  28.501594 
2494900     247.45  3368.3784 -8843.580052346359  751.9307637893978 -8091.649288556961  6836.3342  2.29375   25079.53  29.271151  29.271151  29.271151 -0.77249502  28.498656 -0.77249502  28.498656 -0.77249502  28.498656 
2495000      247.5  3398.6321  -8850.87322698674   758.684365112906 -8092.188861873834  2918.7326  2.29417  25074.945  29.269367  29.269367  29.269367 -0.77160318  28.497764 -0.77160318  28.497764 -0.77160318  28.497764 
2495100     247.55  3295.6761 -8828.648523508466  735.7012503842492 -8092.947273124217   13840.06  2.29415  25075.172  29.269455  29.269455  29.269455 -0.77164721  28.497808 -0.77164721  28.497808 -0.77164721  28.497808 
2495200      247.6  3353.2506 -8842.629842262471  748.5537341277007 -8094.076108134771 -3075.7174  2.29182  25100.685  29.279379  29.279379  29.279379 -0.77660897   28.50277 -0.77660897   28.50277 -0.77660897   28.50277 
2495300     247.65  3427.1911 -8860.480567151815  765.0596396879893 -8095.420927463826 -5527.0846  2.28972  25123.737  29.288339  29.288339  29.288339 -0.78108919   28.50725 -0.78108919   28.50725 -0.78108919   28.50725 
2495400      247.7   3350.717 -8845.206943449213  747.9881692253282 -8097.218774223885 -4861.3231  2.28749  25148.149  29.297822  29.297822  29.297822 -0.78583073  28.511992 -0.78583073  28.511992 -0.78583073  28.511992 
2495500     247.75  3414.4699 -8861.844575654721  762.2198682706614  -8099.62470738406 -6127.5026  2.28721  25151.302  29.299047  29.299047  29.299047 -0.78644296  28.512604 -0.78644296  28.512604 -0.78644296  28.512604 
2495600      247.8  3351.3173 -8850.682214731904  748.1221756441809 -8102.560039087723 -935.75254  2.29011  25119.407  29.286657  29.286657  29.286657 -0.78024797  28.506409 -0.78024797  28.506409 -0.78024797  28.506409 
2495700     247.85  3208.4944 -8822.015711824299  716.2394818799099 -8105.776229944388  4651.4883  2.29275  25090.534  29.275431  29.275431  29.275431 -0.77463522  28.500796 -0.77463522  28.500796 -0.77463522  28.500796 
2495800      247.9  3305.7083 -8847.435184019647  737.9407691683624 -8109.494414851284  3030.5494  2.29293   25088.48  29.274632  29.274632  29.274632 -0.7742357  28.500396 -0.7742357  28.500396 -0.7742357  28.500396 
2495900     247.95   3325.224 -8855.780249246849  742.2972933647553 -8113.482955882094   -351.201  2.28878  25134.074  29.292355  29.292355  29.292355 -0.78309733  28.509258 -0.78309733  28.509258 -0.78309733  28.509258 
2496000        248  3351.8987 -8865.197765908169   748.251966199285 -8116.945799708885  259.75844  2.28418  25184.643  29.311988  29.311988  29.311988 -0.79291339  28.519074 -0.79291339  28.519074 -0.79291339  28.519074 
2496100     248.05  3269.0343 -8850.123053397134  729.7539504891813 -8120.369102907953 -2889.5423  2.28011  25229.609  29.329422  29.329422  29.329422 -0.80163075  28.527792 -0.80163075  28.527792 -0.80163075  28.527792 
2496200      248.1  3292.6425 -8858.448733437101  735.0240712144439 -8123.424662222656 -4603.8753  2.27712  25262.756  29.342261  29.342261  29.342261 -0.80805005  28.534211 -0.80805005  28.534211 -0.80805005  28.534211 
2496300     248.15  3276.2768 -8857.805555899737  731.3707045672999 -8126.434851332437  -23.82523  2.27544   25281.36  29.349462  29.349462  29.349462 -0.81165058  28.537811 -0.81165058  28.537811 -0.81165058  28.537811 
2496400      248.2  3284.4441 -8861.832084455207  733.1939044734656 -8128.638179981742  4788.8219  2.27422  25294.955  29.354722  29.354722  29.354722 -0.81428048  28.540441 -0.81428048  28.540441 -0.81428048  28.540441 
2496500     248.25   3280.374 -8862.972952574335   732.285330135065  -8130.68762243927 -695.74864  2.27282  25310.485  29.360728  29.360728  29.360728 -0.81728365  28.543444 -0.81728365  28.543444 -0.81728365  28.543444 
2496600      248.3  3293.8348 -8867.191206680622  735.2902222894238 -8131.900984391198 -4959.4624  2.27119  25328.669  29.367758  29.367758  29.367758 -0.8207985  28.546959 -0.8207985  28.546959 -0.8207985  28.546959 
2496700     248.35  3290.0923 -8867.569491716253  734.4547740259558 -8133.114717690297 -644.69129  2.27054  25335.907  29.370555  29.370555  29.370555 -0.82219701  28.548358 -0.82219701  28.548358 -0.82219701  28.548358 
2496800      248.4  3292.3856 -8869.080893761406  734.9667110113896 -8134.114182750016 -7548.8625  2.27132  25327.252   29.36721   29.36721   29.36721 -0.82052467  28.546685 -0.82052467  28.546685 -0.82052467  28.546685 
2496900     248.45  3161.8382 -8841.264751246163  705.8243139704241 -8135.440437275738 -6227.0234   2.2759  25276.241  29.347481  29.347481  29.347481 -0.81066012  28.536821 -0.81066012  28.536821 -0.81066012  28.536821 
2497000      248.5   3262.162 -8864.469932880274  728.2198259279428 -8136.250106952331 -147.77074   2.2817  25212.009  29.322601  29.322601  29.322601 -0.79821991  28.524381 -0.79821991  28.524381 -0.79821991  28.524381 
2497100     248.55  3301.9638 -8873.846267293571    737.10488207865 -8136.741385214921  7846.6147  2.28566  25168.277  29.305637  29.305637  29.305637 -0.78973803  28.515899 -0.78973803  28.515899 -0.78973803  28.515899 
2497200      248.6  3180.6552 -8847.550566388261  710.0248800164228 -8137.525686371839  1916.7014  2.28696  25154.068  29.300121  29.300121  29.300121 -0.7869799  28.513141 -0.7869799  28.513141 -0.7869799  28.513141 
2497300     248.65  3332.2187 -8882.128174979065  743.8587401834211 -8138.269434795644  3863.4075  2.28725    25150.8  29.298852  29.298852  29.298852 -0.78634546  28.512506 -0.78634546  28.512506 -0.78634546  28.512506 
2497400      248.7  3228.1064 -8859.660925197761   720.617512037965 -8139.043413159796 -8641.6374  2.28563  25168.638  29.305777  29.305777  29.305777 -0.78980808  28.515969 -0.78980808  28.515969 -0.78980808  28.515969 
2497500     248.75  3245.2298 -8864.123441725518   724.440022428263 -8139.683419297256 -5257.5172  2.28545  25170.625  29.306548  29.306548  29.306548 -0.79019353  28.516354 -0.79019353  28.516354 -0.79019353  28.516354 
2497600      248.8  3245.3754 -8864.697900001087  724.4725216473681 -8140.225378353719  6577.2334  2.28532  25172.065  29.307107  29.307107  29.307107 -0.79047302  28.516634 -0.79047302  28.516634 -0.79047302  28.516634 
2497700     248.85  3303.6243  -8878.84705859144  737.4755602456474 -8141.371498345793  5291.7017  2.28178  25211.148  29.322267  29.322267  29.322267 -0.79805299  28.524214 -0.79805299  28.524214 -0.79805299  28.524214 
2497800      248.9  3207.6127 -8858.162857271063  716.0426555249284 -8142.120201746135 -6432.9229  2.27562  25279.346  29.348682  29.348682  29.348682 -0.81126083  28.537422 -0.81126083  28.537422 -0.81126083  28.537422 
2497900     248.95  3222.8266  -8862.27766808098  719.4388908600754 -8142.838777220904 -432.98588   2.2703  25338.564  29.371582  29.371582  29.371582 -0.82271041  28.548871 -0.82271041  28.548871 -0.82271041  28.548871 
2498000        249  3207.1227 -8859.866447070581  715.9332743635505  -8143.93317270703 -8103.8099   2.2661  25385.581  29.389737  29.389737  29.389737 -0.83178815  28.557949 -0.83178815  28.557949 -0.83178815  28.557949 
2498100     249.05  3216.7162  -8862.99167541198  718.0748581820365 -8144.916817229944 -3623.4725  2.26401  25409.005  29.398774  29.398774  29.398774 -0.83630664  28.562467 -0.83630664  28.562467 -0.83630664  28.562467 
2498200      249.1   3338.918 -8891.220122843566  745.3542466245497 -8145.865876219016 -563.74039  2.26453  25403.135   29.39651   29.39651   29.39651 -0.83517449  28.561335 -0.83517449  28.561335 -0.83517449  28.561335 
2498300     249.15   3234.824 -8868.897320724616   722.117097466643 -8146.780223257973 -2245.7727  2.26803   25363.95  29.381387  29.381387  29.381387 -0.82761323  28.553774 -0.82761323  28.553774 -0.82761323  28.553774 
2498400      249.2  3215.9192 -8865.839234970435  717.8969459197981 -8147.942289050638 -216.51083  2.27366  25301.116  29.357105  29.357105  29.357105 -0.81547212  28.541633 -0.81547212  28.541633 -0.81547212  28.541633 
2498500     249.25  3219.9179 -8867.635397561695  718.7895897806166 -8148.845807781078  8633.1837  2.27931   25238.42  29.332836  29.332836  29.332836 -0.80333763  28.529498 -0.80333763  28.529498 -0.80333763  28.529498 
2498600      249.3  3326.2922 -8892.391231440699   742.535768388217 -8149.855463052482  4906.1864  2.28438  25182.465  29.311143  29.311143  29.311143 -0.79249089  28.518652 -0.79249089  28.518652 -0.79249089  28.518652 
2498700     249.35  3222.0332 -8870.009459972101  719.2617771822283 -8150.747682789874  7386.6391  2.28668  25157.051  29.301279  29.301279  29.301279 -0.78755914   28.51372 -0.78755914   28.51372 -0.78755914   28.51372 
2498800      249.4  3278.0693 -8883.747322154271  731.7708435216063 -8151.976478632665 -3899.2278   2.2852  25173.446  29.307643  29.307643  29.307643 -0.79074098  28.516902 -0.79074098  28.516902 -0.79074098  28.516902 
2498900     249.45  3224.2017 -8872.413222522024  719.7458660831586 -8152.667356438865  463.86048  2.28363  25190.732  29.314349  29.314349  29.314349 -0.79409431  28.520255 -0.79409431  28.520255 -0.79409431  28.520255 
2499000      249.5  3188.5535 -8865.663023201716  711.7880371866928 -8153.874986015023  2920.6515  2.28298  25197.832  29.317104  29.317104  29.317104 -0.79547139  28.521632 -0.79547139  28.521632 -0.79547139  28.521632 
2499100     249.55   3193.569 -8867.656428720831  712.9076514503205 -8154.748777270511  1051.5654  2.28212  25207.369  29.320802  29.320802  29.320802 -0.79732051  28.523481 -0.79732051  28.523481 -0.79732051  28.523481 
2499200      249.6  3273.5048 -8886.263563081317  730.7519126479899 -8155.511650433326  -6771.828  2.28128  25216.597  29.324379  29.324379  29.324379 -0.79910921   28.52527 -0.79910921   28.52527 -0.79910921   28.52527 
2499300     249.65  3204.5699 -8871.714347056364  715.3634225875727 -8156.350924468791  10659.733  2.28041  25226.233  29.328114  29.328114  29.328114 -0.80097654  28.527137 -0.80097654  28.527137 -0.80097654  28.527137 
2499400      249.7  3231.0838 -8878.697247656464  721.2821814512308 -8157.415066205233  3538.2546   2.2761  25274.014  29.346619  29.346619  29.346619 -0.81022903   28.53639 -0.81022903   28.53639 -0.81022903   28.53639 
2499500     249.75  3217.8366 -8876.710271959673  718.3249758518452 -8158.385296107828  102.68849  2.26789  25365.502  29.381986  29.381986  29.381986 -0.82791286  28.554074 -0.82791286  28.554074 -0.82791286  28.554074 
2499600      249.8  3266.0409 -8887.639442880956  729.0857307054179 -8158.553712175539 -13203.834  2.25894  25465.993  29.420736  29.420736  29.420736 -0.84728783  28.573449 -0.84728783  28.573449 -0.84728783  28.573449 
2499700     249.85  3240.1887 -8881.944446037171  723.3146798846589 -8158.629766152511 -5351.3637  2.25416  25520.086  29.441553  29.441553  29.441553 -0.85769603  28.583857 -0.85769603  28.583857 -0.85769603  28.583857 
2499800      249.9  3290.8904 -8893.564590442955  734.6329258240157 -8158.931664618939 -8585.9435  2.25501  25510.375  29.437818  29.437818  29.437818 -0.85582858  28.581989 -0.85582858  28.581989 -0.85582858  28.581989 
2499900     249.95  3252.5638 -8885.206774186561  726.0772022603974 -8159.129571926163 -10547.942  2.26031  25450.558  29.414791  29.414791  29.414791 -0.84431527  28.570476 -0.84431527  28.570476 -0.84431527  28.570476 
2500000        250  3225.6261 -8879.126631184852   720.063842425747 -8159.062788759105 -5643.2116  2.26892  25353.968  29.377532  29.377532  29.377532 -0.82568577  28.551847 -0.82568577  28.551847 -0.82568577  28.551847 
Loop time of 562.481 on 28 procs for 500000 steps with 1728 atoms

Performance: 38.401 ns/day, 0.625 hours/ns, 888.919 timesteps/s
97.4% CPU use with 28 MPI tasks x no OpenMP threads

MPI task timing breakdown:
Section |  min time  |  avg time  |  max time  |%varavg| %total
---------------------------------------------------------------
Pair    | 101.9      | 106.87     | 120.6      |  37.4 | 19.00
Neigh   | 1.3069     | 1.5012     | 1.8245     |   8.7 |  0.27
Comm    | 43.69      | 56.363     | 60.99      |  49.4 | 10.02
Output  | 350.44     | 350.46     | 350.54     |   0.1 | 62.31
Modify  | 39.435     | 40.806     | 41.998     |  11.4 |  7.25
Other   |            | 6.481      |            |       |  1.15

Nlocal:        61.7143 ave          74 max          51 min
Histogram: 1 2 6 4 1 6 3 2 1 2
Nghost:        522.464 ave         549 max         497 min
Histogram: 4 1 3 3 2 6 2 2 2 3
Neighs:        0.00000 ave           0 max           0 min
Histogram: 28 0 0 0 0 0 0 0 0 0
FullNghs:      2160.29 ave        2851 max        1629 min
Histogram: 2 1 7 3 2 8 1 3 0 1

Total # of neighbors = 60488
Ave neighs/atom = 35.004630
Neighbor list builds = 10731
Dangerous builds = 0
System init for write_restart ...
Total wall time: 0:09:22
